42
i = 0, time = 0.0, E = 0.0;
H 18.14253293 16.98046626 22.92971857
H 17.54375140 17.21274279 18.57893868
H 18.02610258 15.82546917 18.10472609
H 19.22012133 19.03880160 22.42040581
H 19.35119107 20.04042294 21.24321352
H 18.17350010 21.59102874 19.69561008
H 18.28877088 20.45585774 18.51067111
H 14.95842662 18.01388693 23.13834018
H 14.23864858 18.66331381 21.94195145
H 18.60282269 20.16132133 16.20666514
H 19.93668835 19.88411858 17.06262747
H 17.56487437 21.24053236 25.22742892
H 16.28188958 20.98263313 25.98547508
H 16.91297035 19.68107736 14.74472671
H 17.96740240 20.72063822 14.37962392
H 20.82524079 18.20749845 16.78384316
H 20.73338436 18.39722902 18.35813327
H 20.18539616 22.10539542 23.94367705
H 19.97560379 20.62525686 23.53691727
H 17.72595084 19.10102231 24.28851595
H 18.49090038 17.95479997 24.87996835
H 18.69583208 16.95088329 16.17696437
H 18.56490996 17.88858975 14.99829138
H 17.20847938 18.95628455 20.07535973
H 16.32561192 17.83084400 20.94299674
H 20.15780719 17.95209610 20.41161293
H 19.62876150 17.12283578 19.13868333
H 17.82962728 16.33142172 21.60592548
O 17.60233394 16.19451037 22.53702091
O 18.23523953 16.76773208 18.03297605
O 19.76465859 19.26092414 21.67040143
O 17.78142401 20.68049375 19.41012977
O 14.96710223 18.03441271 22.15661119
O 19.09330963 20.47126354 16.98305128
O 16.78463195 20.70514741 25.21142181
O 17.79858938 19.77711166 14.42013423
O 21.04788968 18.86744238 17.47333794
O 19.67374159 21.30165309 24.19506486
O 18.52524458 18.61574813 24.14480032
O 19.07004318 17.10853480 15.32485886
O 17.01322648 17.95106509 20.25396169
O 20.48510984 17.35453456 19.67497517
42
i = 0, time = 0.0, E = 0.0;
H 16.09371360 17.18635664 18.53502767
H 19.63682046 17.21148351 18.34674756
H 20.64967160 17.14989333 17.21042032
H 19.54251824 17.88097209 22.83969249
H 20.40827389 18.53597864 21.74550559
H 17.02885358 20.29579673 20.15173409
H 17.03700136 19.64950535 21.55103825
H 16.43254641 15.49595158 20.35792396
H 17.05680720 14.16153760 20.66588526
H 18.53298657 20.98936630 18.71955449
H 17.23901433 21.79698762 18.25697200
H 16.57773295 19.51086564 25.31503673
H 17.42870269 19.88279671 24.01307605
H 19.50356415 20.31885487 15.07384303
H 19.10273157 20.09347717 16.54611404
H 20.04775299 19.32971861 18.03261979
H 20.77394681 20.70948922 18.55084916
H 18.45031862 21.35045691 21.84174941
H 19.00580601 20.07815857 22.69661414
H 17.72907243 15.88007133 22.96653867
H 17.51089132 17.16450784 23.89384072
H 17.11145637 19.27567364 17.42908075
H 17.43673093 18.26254208 16.37766358
H 18.35492066 17.96566665 20.03475913
H 18.61449524 16.57032069 20.55497810
H 21.22494258 20.84698748 20.83393799
H 22.41217647 21.90241817 20.45174972
H 15.58879086 17.63984572 19.92404864
O 15.59756751 16.87159829 19.34837272
O 19.99558264 17.75602463 17.60059171
O 19.96021048 18.78366986 22.59872268
O 16.93812014 19.38233117 20.62313945
O 17.15890879 15.10511090 20.89335126
O 17.75655006 21.49784235 19.06640467
O 16.91499944 19.19336717 24.45349882
O 18.77117373 20.00075210 15.62609736
O 20.07512374 20.33553439 17.96554418
O 18.40682152 20.90685474 22.73228867
O 18.21507438 16.61750145 23.45990047
O 16.93104949 18.35451238 17.17535267
O 19.03853683 17.23003898 19.97457523
O 21.76937875 21.23063584 20.12173763
42
i = 0, time = 0.0, E = 0.0;
H 15.93000548 16.74810368 19.94110563
H 18.20626611 18.17056088 18.22250490
H 18.07732831 17.37116304 16.96291838
H 19.06111814 17.48701378 21.97888652
H 18.08988293 17.39318070 20.74974820
H 17.39132560 21.03443282 20.39251619
H 18.41263417 19.85748405 20.91333680
H 15.49555624 18.85855699 22.92226232
H 15.99826027 17.43886201 22.58816587
H 18.57426980 20.24156337 16.95765729
H 17.19923520 20.11926859 17.54108059
H 18.32581342 20.12306949 24.49372650
H 17.28493382 19.53293712 25.48405413
H 20.81649332 20.22726148 15.17049636
H 20.70687511 19.92756389 16.70613532
H 21.37291921 19.15448035 18.69457207
H 21.29966428 20.81448029 18.50336356
H 18.21972349 21.34092010 22.61908123
H 19.44372156 21.69462549 23.37303933
H 18.78658281 18.03613736 24.43360168
H 19.20881359 16.41856168 24.58862518
H 19.09095286 18.63753412 15.21823136
H 18.87610833 17.11495595 14.92203428
H 14.45437019 19.14758395 19.63671592
H 15.42283952 18.73684750 20.74480633
H 20.14713845 17.82180938 20.03538966
H 20.22441888 17.45517495 18.61106305
H 17.20217846 16.37564147 19.16665177
O 16.85203990 16.31794370 20.09561529
O 18.19133664 17.21757227 17.96382627
O 18.81593171 17.98805876 21.18205800
O 17.94968830 20.72745117 21.15927708
O 15.44166516 18.16356971 22.24734767
O 18.09693501 20.26729916 17.84495004
O 18.21096148 19.45846762 25.25303665
O 20.13655303 19.95760010 15.85752360
O 21.52888084 19.97117119 18.03531009
O 18.52341769 21.55857955 23.56191834
O 19.42387279 17.26811926 24.16872076
O 18.37930864 17.91174694 15.30458593
O 15.31786110 18.71320141 19.74549882
O 20.86306484 17.73591491 19.30466384
42
i = 0, time = 0.0, E = 0.0;
H 18.12754632 15.04035828 20.31975394
H 18.25813902 18.52209230 17.03091271
H 19.77836405 18.49228339 17.31204304
H 19.16777501 17.82689083 21.91374253
H 18.96901085 17.70397732 20.43404100
H 17.52363518 20.77271253 22.19518315
H 16.45720582 20.50821409 23.21411254
H 16.68664719 16.07491064 21.33125730
H 16.82858570 17.29583278 22.21111806
H 17.58347632 21.48280887 18.65431547
H 16.39647061 20.44000631 18.85936240
H 19.12930221 20.49935659 24.04386369
H 19.63561568 20.30144361 25.44606231
H 17.12016137 19.84226999 15.21535209
H 17.44762804 20.30937345 16.58547615
H 19.98437639 20.47713365 15.40996114
H 21.07632725 20.55557589 16.46349953
H 20.06794849 21.37950281 21.68381732
H 19.50140264 19.79655035 21.77540486
H 18.76730984 18.51892240 24.04416390
H 18.30491131 17.12266269 24.30421234
H 17.44840909 15.69710605 18.35499578
H 18.70804593 16.54621755 18.10933114
H 16.16068846 19.72451353 21.02389591
H 16.46819863 18.39132620 20.09222935
H 20.62920672 19.01926408 19.69549705
H 21.99716679 19.63503202 19.25445374
H 17.62408366 13.78292768 21.02228598
O 17.71507427 14.74938098 21.16320913
O 18.95974420 18.05720606 17.59004296
O 19.45124860 18.21298427 21.10480922
O 16.62529883 21.02124739 22.39513018
O 16.26456875 16.99730939 21.47001944
O 16.77880489 21.16922240 18.17834758
O 18.82436598 20.06259641 24.86634018
O 17.86187606 19.75921177 15.83739587
O 20.95970750 20.58489537 15.46639176
O 19.53246669 20.72278836 22.17295597
O 18.82478609 17.59733154 23.62158304
O 18.41897276 15.72394308 18.63953247
O 16.22634066 19.37768983 20.09285350
O 21.12897473 19.31668694 18.84670354
42
i = 0, time = 0.0, E = 0.0;
H 18.34691375 15.87911990 21.93038544
H 17.67104632 18.12579611 19.26320772
H 18.04251501 16.63723735 19.27688876
H 19.65802455 19.71446825 22.85551477
H 18.58002294 19.43476123 21.88872166
H 19.15350284 20.19606931 19.17680606
H 18.16544472 21.00461638 18.35973819
H 16.73351759 17.21261594 21.56207951
H 16.77697976 18.18588913 22.87961242
H 17.34584323 20.26086291 16.12360855
H 16.64090159 21.38880300 16.92489313
H 19.39408894 17.39350833 22.93132003
H 20.14105522 16.11178418 23.57289740
H 17.66182102 16.92450117 15.37252344
H 17.77736158 15.41194429 14.80542039
H 20.40772661 22.52253610 17.72422947
H 21.20481717 21.06903919 17.79137975
H 18.53219919 20.92623476 24.19280717
H 19.97280577 21.14068452 24.66724123
H 18.03341996 17.74487669 24.39563892
H 16.91963424 18.22861182 25.27448858
H 19.02074977 18.78131839 16.11526299
H 18.19628497 17.98133697 16.96815351
H 17.53400311 20.85493335 20.86169211
H 16.61542751 19.86079039 21.59306510
H 20.07310214 18.26438833 19.21856247
H 20.44782905 18.82199130 20.62183818
H 17.84725958 14.70494241 21.01465121
O 18.00450258 15.62806674 20.99026650
O 18.06514060 17.42409385 18.72973339
O 19.45807277 19.06079182 22.11086394
O 18.26085212 20.63400889 19.24187812
O 16.36488646 18.00270474 22.01091967
O 17.45534498 21.21370207 16.44134935
O 19.27158396 16.46508148 23.32447135
O 17.16223759 16.10907987 15.11406100
O 20.45417652 21.56700850 17.42252230
O 19.45422236 20.90622649 23.94380987
O 17.47576636 18.52807223 24.51097026
O 18.14986928 18.41273055 16.11688276
O 17.19762124 20.60313738 21.78955733
O 20.73200958 18.85925606 19.61219972
42
i = 0, time = 0.0, E = 0.0;
H 18.03154321 16.02416386 19.78906664
H 16.97050577 17.64474501 18.95474481
H 17.03482287 16.93845872 17.38873419
H 19.96595043 16.70401776 20.61778623
H 21.55752420 16.53717527 20.47601401
H 17.05227217 21.34672878 20.38503979
H 15.82213064 21.76075401 21.25811898
H 17.21683348 18.09828623 23.45504014
H 18.35625824 18.53854012 22.49365376
H 17.94420833 19.70356707 19.72554074
H 19.07386883 20.53796730 18.96127976
H 21.10974855 19.16869745 24.70800891
H 20.14605905 19.49393118 23.59483988
H 18.27720937 20.99580405 16.40729229
H 17.02651187 20.89849601 17.25944797
H 20.77868485 20.63564366 17.04695536
H 20.09813812 19.33722231 17.50629313
H 20.52946582 18.70836406 21.61510445
H 19.48066683 19.74485569 21.24777376
H 18.21388647 18.92668113 26.88663455
H 18.96688475 19.07751140 25.51538057
H 15.76825435 18.55732913 15.14374771
H 16.78011728 19.27882102 16.08853950
H 16.42746012 18.30836670 20.90347213
H 15.77821683 19.42377552 20.15305181
H 20.69077818 17.23788699 18.26132780
H 19.35327446 17.37084259 17.67923403
H 18.08384291 15.46018033 21.21622263
O 18.64718419 15.64516529 20.45561625
O 17.59358116 17.15416057 18.22970045
O 20.83377850 17.14563515 20.41897384
O 16.07315392 21.23679277 20.39826701
O 17.45623498 18.11709521 22.54093070
O 18.54967076 20.47051895 19.84557071
O 20.22277071 19.56706945 24.60226053
O 17.29917263 20.91128353 16.31352868
O 19.87983673 20.41879835 17.41335202
O 19.90700457 19.34603788 22.09250836
O 18.13420925 18.64432884 25.90756170
O 16.51689056 18.39601605 15.77354932
O 16.16195417 18.53558672 19.98136158
O 20.25347399 17.71993080 17.55164456
42
i = 0, time = 0.0, E = 0.0;
H 15.92245464 18.17965359 18.06341293
H 20.66883068 17.70854365 19.27218962
H 20.00528058 17.69497045 17.91912977
H 19.17478640 17.11710522 20.81482059
H 20.26389704 17.22245744 22.01992229
H 17.56315359 18.72107488 20.53510581
H 17.71771814 20.07278916 19.84800705
H 15.89246114 19.50189707 21.66749776
H 14.46788565 19.02417943 22.08892721
H 17.52917606 21.55876108 18.72896834
H 18.88950088 20.81294985 18.22875145
H 18.45049974 19.40891045 23.93510634
H 18.21913038 18.47837415 25.16476353
H 17.69320589 19.24053889 15.31169355
H 18.08327607 19.72697649 16.64619640
H 20.48774763 19.87954880 18.31628610
H 20.90028067 21.06326882 19.18204760
H 18.64542631 20.41062063 21.93406703
H 19.10070750 21.64548908 22.89781132
H 17.46137048 17.29793444 23.35448101
H 16.10847218 17.77426778 23.00668463
H 17.82486311 16.91870246 17.50832751
H 18.72575165 17.45613725 16.35023613
H 16.89824311 16.72371196 19.89788613
H 16.83547063 16.95453665 21.58637416
H 21.13264175 19.26495415 20.63798279
H 21.06530243 20.29599479 21.88426033
H 15.04642269 17.11479799 17.46827720
O 15.93601896 17.21117888 17.84681091
O 20.71450849 18.19043413 18.39680583
O 20.08858519 17.43606858 21.04345185
O 17.71967075 19.68347975 20.76445748
O 15.33631850 19.24643531 22.42224666
O 17.81257002 20.66865495 18.33636005
O 18.47120627 18.45172843 24.21075121
O 18.44718004 19.64847992 15.74481974
O 20.37700966 20.89132118 18.30632515
O 19.07236002 20.68039468 22.80920090
O 16.60433959 16.90831578 22.98341270
O 18.68768632 16.82249100 17.13473624
O 17.22988227 17.23698277 20.65521572
O 21.39455587 20.18140003 20.89978837
42
i = 0, time = 0.0, E = 0.0;
H 19.52451467 15.14355381 21.39619607
H 18.68763669 16.22536501 19.28476688
H 18.35111956 16.90874117 17.88490223
H 21.62807652 16.86978782 22.83356771
H 21.86799531 17.83181909 21.73625338
H 17.78014307 21.98830576 19.93084374
H 18.56677598 21.38228430 18.62161666
H 17.26834806 16.40664831 22.25181291
H 16.58079270 17.72167017 22.85522955
H 15.20400214 20.44281641 17.02911747
H 16.02594178 20.77484278 18.36679963
H 18.88428037 20.43117029 23.13208686
H 17.75847868 19.73230758 22.16845416
H 14.42107487 19.92717842 14.56739369
H 15.92858855 19.98131134 14.71416169
H 20.46948080 20.88805775 17.26251663
H 20.41744150 20.03942327 18.52183960
H 20.93015887 20.35929862 23.59133299
H 21.06013546 21.72640915 22.98447176
H 18.83305305 18.36554355 24.01786925
H 19.50462835 17.15130277 23.55323255
H 15.80024837 17.60936960 17.04152861
H 16.26723303 18.51495288 18.15858754
H 17.74259316 19.65348999 19.95841181
H 17.56752993 18.21249371 20.66030790
H 20.24185908 17.78922472 18.67918079
H 19.78657266 18.82594689 19.82145610
H 19.52158074 16.68068551 21.21881138
O 19.01753041 15.84290539 20.97570543
O 19.04756166 16.39169420 18.36176920
O 21.28232348 17.07437063 21.94318339
O 17.64545344 21.39345774 19.16936883
O 16.59367279 17.09390988 22.08111359
O 15.40009955 20.08804577 17.93626302
O 18.09131621 19.86979886 23.11184687
O 15.11998948 20.37738651 15.11912671
O 20.11851561 20.95356843 18.15831089
O 20.40107733 21.07366602 23.19918376
O 19.58996761 17.81858117 24.27757964
O 16.54883040 17.69688195 17.63496110
O 18.18435198 18.94591140 20.53803901
O 20.48286038 18.61735035 19.17560665
42
i = 0, time = 0.0, E = 0.0;
H 17.59831532 14.81744743 20.50078043
H 18.13353928 18.72477464 19.03870864
H 18.11897223 18.15437814 17.51436380
H 19.48943441 17.24302658 19.25327972
H 20.24317384 16.99997273 20.53200204
H 15.10748378 20.94006724 20.74960185
H 16.32378694 21.34102240 19.76681342
H 17.89241653 17.38644768 23.53044660
H 17.92583853 16.06881485 22.64876392
H 18.14901682 21.86999509 18.50348096
H 16.94331432 21.42446762 17.65881329
H 18.80271463 19.72934066 23.81685531
H 19.25231074 19.59053342 25.24978906
H 16.37833179 20.63477618 15.51724590
H 17.87007084 20.16074470 15.47066907
H 20.54640472 21.02444514 19.12281547
H 19.25486690 20.29768378 18.58678527
H 17.34523113 20.99165382 21.92136518
H 17.42634339 21.14948746 23.34530381
H 19.87601276 18.02881764 22.93819131
H 21.22740519 17.28926727 22.95224411
H 16.38244228 16.50220738 16.57121897
H 16.07879307 18.02357396 16.22466992
H 16.74425157 18.97237925 20.88214634
H 17.40219926 17.68287781 21.20629248
H 21.28379179 18.43197176 18.98180636
H 22.16561370 18.69637999 20.25351090
H 19.06147794 15.29954776 20.66194625
O 18.39243915 14.74177503 21.11284499
O 18.67877828 18.59338267 18.21032318
O 20.23184584 16.67728689 19.60411342
O 16.05021334 20.77029810 20.64206023
O 17.44015413 16.92637214 22.82044636
O 17.22980605 22.15016287 18.31307388
O 18.97633759 19.01392570 24.52003764
O 16.99192649 19.93947829 15.85277743
O 19.62703323 21.23509981 18.72673512
O 17.95829775 20.72906849 22.67983989
O 20.60815352 17.70119518 22.31728454
O 16.40715752 17.44892154 16.93132281
O 17.25902345 18.22251567 20.43979967
O 21.89899216 19.09484398 19.43849326
42
i = 0, time = 0.0, E = 0.0;
H 17.50037571 15.66465677 24.84620836
H 17.61475315 18.24989414 19.87146269
H 18.28158584 17.56163702 18.52853139
H 20.76012498 18.34330586 21.79636660
H 21.37162800 17.86569474 23.16991688
H 16.84796524 19.91302748 17.53320581
H 16.25174493 21.21636985 16.97585916
H 16.00183483 18.08793264 21.80750816
H 17.44706664 17.25282594 21.96550312
H 19.37663560 20.04575013 16.20326668
H 19.29545985 18.48515122 16.55026087
H 18.40444240 19.63578833 24.63355396
H 19.15167780 19.39210243 25.98750116
H 17.03329343 18.47331884 13.87665008
H 18.31750638 18.67243127 14.73197700
H 19.10396588 21.94199890 17.70355371
H 20.31602577 22.04806126 16.74826282
H 17.80938119 18.98154707 22.28134542
H 17.64454922 20.51875421 22.00184825
H 19.37364479 17.45339956 23.52612579
H 17.94447824 17.42243436 24.25362462
H 17.46237000 16.07732322 16.62070543
H 17.58562685 17.33977389 15.75082881
H 17.35571424 21.70522860 19.03494351
H 18.61213916 21.00282519 19.67455198
H 20.87236205 19.62588127 20.02836494
H 19.83128362 18.53497702 19.80758706
H 17.59210897 16.54483366 26.11622455
O 17.60227771 15.63390215 25.79844515
O 18.27578129 18.35699320 19.15660672
O 20.54390803 18.18822684 22.76208220
O 16.27439879 20.67039348 17.78012686
O 16.75342937 17.69287529 21.34151193
O 19.54917047 19.12805481 15.81769500
O 18.35826907 19.22368408 25.48631413
O 17.74476188 18.00279362 14.33181363
O 19.35472282 21.96020329 16.73709633
O 18.03450714 19.86369167 22.63684090
O 18.43318922 16.97982518 23.56630609
O 17.69954122 17.00342141 16.70023058
O 18.16557010 21.87494000 19.62936907
O 20.82604291 18.62872726 19.95129202
42
i = 0, time = 0.0, E = 0.0;
H 15.55242452 17.16863538 19.54295421
H 17.57543600 17.66805931 18.79451636
H 18.96517745 18.17379593 18.00838807
H 20.92831753 17.46584839 23.15028557
H 20.12688689 17.53200518 21.91645094
H 18.10826670 20.85845705 21.28051437
H 17.02232321 20.88636471 20.09089950
H 18.68433616 17.54828800 20.50423137
H 18.09912278 17.69556391 21.88238747
H 17.75674069 20.42021105 18.32691327
H 17.59348060 21.87240670 17.86747610
H 17.04625214 19.34955991 22.33000819
H 17.54018003 18.66866529 23.63786322
H 16.41374956 16.50389629 15.92105074
H 16.85499065 15.72515867 17.28742801
H 20.33255021 21.43498312 17.39248638
H 20.50302437 20.82169671 18.74966524
H 20.34878872 19.77730845 22.20929332
H 20.79073221 20.74775453 21.06963389
H 18.07137295 19.91394688 25.29183581
H 19.38437809 19.08138014 25.24095291
H 18.60596604 16.98326119 16.16078405
H 19.50472333 18.20137186 15.51846708
H 16.31339862 19.09042154 20.29952833
H 15.18991066 19.67430067 19.49961029
H 22.47232462 19.64938782 19.44241910
H 21.24336780 18.79825006 19.85764174
H 16.47184960 15.86172903 19.97573647
O 16.18197578 16.44626154 19.25018380
O 18.27450795 18.35440258 18.74696037
O 20.89503576 17.99733678 22.36146446
O 17.25607361 20.47088298 20.97214408
O 18.63320330 17.03086402 21.36917549
O 17.16643976 21.16264078 18.37447693
O 17.11367749 18.46225063 22.76609962
O 17.10869176 15.95848518 16.37198812
O 19.82948078 21.37082050 18.21344543
O 20.30146311 20.77040439 21.94092260
O 18.48668742 19.06161206 25.61609092
O 19.33171047 17.68308933 16.39035735
O 15.38763396 18.86178201 19.97752878
O 21.50153906 19.60740705 19.39380370
42
i = 0, time = 0.0, E = 0.0;
H 18.20090292 15.21881045 20.49022986
H 17.85672316 18.07002011 18.39995304
H 18.37663768 18.29567497 16.92586476
H 18.14442166 16.69495060 22.35136433
H 17.55137421 17.47929354 21.02397902
H 17.54276355 21.37716033 19.71431969
H 17.08893646 22.08716433 21.02474655
H 14.53141697 16.38066076 24.92687985
H 15.87366859 16.81451878 24.28907100
H 19.68958437 21.61426838 18.25065215
H 18.92296984 20.43639775 18.10681515
H 18.92145231 20.02270831 24.78169574
H 19.47678894 19.32515810 23.50182640
H 17.39693296 21.77246322 14.91236714
H 18.34204717 20.92783501 15.82351515
H 21.75918646 22.02792856 19.58357920
H 21.32329272 20.68599098 19.60615048
H 19.12947843 20.54199265 21.56311801
H 20.14387175 19.44111734 21.18407114
H 18.26538128 17.71195277 24.49519442
H 18.09117462 16.23180831 24.96157459
H 16.90480240 18.20878301 14.43796168
H 17.83431812 19.40946743 14.74711552
H 17.00524587 19.45999158 20.54041011
H 15.91856293 18.35111285 20.27463712
H 19.98074527 17.27177876 20.52208227
H 19.86094673 18.04740819 19.31305654
H 18.33836041 15.04835350 19.04807006
O 18.43293264 14.49881636 19.82438977
O 18.62606030 18.40188874 17.87250590
O 18.24625468 16.82859500 21.36749402
O 17.57284326 21.32433176 20.71075202
O 14.90167039 16.82757254 24.15055069
O 18.76891285 21.38663296 17.93727310
O 19.10249265 19.06988588 24.42142517
O 18.24083659 21.18814657 14.88942086
O 21.27539556 21.47162189 18.97130356
O 19.94829172 20.05419121 21.97657625
O 17.70437980 16.86220699 24.35202484
O 17.68572350 18.48122273 15.01580590
O 16.82594652 18.73833975 19.92363805
O 20.45316880 18.01771203 20.10776214
42
i = 0, time = 0.0, E = 0.0;
H 15.87243340 17.06072384 19.30088398
H 18.84379726 16.29212492 17.84498745
H 18.96083953 17.47749632 16.89894805
H 20.90114318 18.53952856 22.52582025
H 19.69770410 18.28686111 23.54927350
H 19.98150238 21.18506438 21.03623843
H 19.26103325 21.97456522 19.89651495
H 16.00776780 19.42029421 23.10029714
H 16.57942123 18.15050482 22.61218907
H 22.32343414 19.99620980 21.54401134
H 21.27104849 19.51745100 20.43611618
H 18.31428819 19.83180385 24.74579599
H 18.44253703 18.56616039 25.64995385
H 15.62756219 16.71950016 16.61174943
H 15.15289004 16.01435412 15.27912736
H 19.19151784 21.35553720 17.44968815
H 18.88508996 20.32915726 18.44399468
H 18.12919022 21.57632563 22.31162525
H 17.31055692 22.10123460 23.55348504
H 18.99869075 17.45068234 22.13801984
H 18.40157789 16.42194584 21.21894067
H 17.79820927 18.46937477 14.69699569
H 16.71142597 18.00293679 15.63991195
H 18.07538760 20.13325212 20.30242627
H 17.87465666 18.67251685 20.32910430
H 20.56823725 19.02242999 18.38103239
H 20.67011973 17.69402851 19.15372517
H 16.55658060 18.15471124 18.56120895
O 16.14714471 17.25526296 18.40005932
O 19.49516155 16.98555063 17.60000299
O 20.33649886 17.79013836 22.90380730
O 19.11402824 21.68183977 20.79081185
O 15.71648472 18.53573764 22.76774950
O 21.38560678 19.97578009 21.35714486
O 18.32168975 18.80453299 24.73433765
O 14.96879007 16.74005240 15.90752033
O 19.64223295 20.67365903 17.91258546
O 17.74159061 21.26269817 23.24017298
O 18.29001626 17.37161892 21.44474728
O 17.73202066 18.04000703 15.57582297
O 17.71979381 19.42486653 19.75839857
O 20.92582558 18.64331573 19.22782631
42
i = 0, time = 0.0, E = 0.0;
H 18.58947182 15.94360329 20.76351591
H 17.59647798 17.10231322 19.34147450
H 18.89056822 16.88685922 18.35659235
H 20.30476752 18.62689890 22.07924852
H 20.69115288 17.54749260 21.08690839
H 17.07435685 21.43027893 20.38593330
H 16.84961744 20.97183389 18.94093106
H 15.83743131 19.77108348 20.72731375
H 15.19102693 19.53972442 22.05314755
H 18.99106991 19.28810693 18.85382178
H 19.69636427 20.67952272 19.21126634
H 19.00387992 18.24736619 25.73262783
H 18.89918161 19.59870474 26.65267766
H 16.24035633 17.76569073 17.35921705
H 17.43331446 18.46432126 16.63532587
H 19.87817408 19.74552250 16.82166630
H 19.21029824 20.06989757 15.49903959
H 19.46472276 21.64352225 21.17274510
H 18.50352901 21.84966173 22.45484589
H 18.00343301 18.70936750 22.48806095
H 18.70225867 17.31258258 22.54938945
H 19.72040621 17.40529772 15.98898100
H 20.09062493 15.98527125 16.37067674
H 15.32536293 17.93180896 19.87835387
H 15.18392083 16.65888605 19.18738545
H 21.00014764 20.08132652 20.60957157
H 21.69135909 21.29376557 19.89445847
H 18.70707036 14.80045264 21.88959880
O 18.28001816 15.68920112 21.65971120
O 18.59976564 17.31418673 19.24568756
O 20.99148846 18.46120705 21.30351271
O 16.35528947 21.11754314 19.76482143
O 15.52647115 18.99760455 21.33718056
O 19.04213073 20.19120357 18.53613654
O 19.11389996 18.62936500 26.61150136
O 16.40735402 18.36123313 16.63376200
O 19.94223707 19.52724089 15.86463119
O 18.48141110 21.84722573 21.46453377
O 18.61891965 18.15851466 23.05996398
O 19.42544229 16.63778256 16.54136532
O 15.81678402 17.38730169 19.18697408
O 20.91288413 21.05859609 20.42552592
42
i = 0, time = 0.0, E = 0.0;
H 18.66334096 15.69592826 19.91159089
H 16.65103658 18.77869238 19.32970478
H 17.74585316 18.02104602 18.48893785
H 19.29333764 18.95416351 21.39513530
H 19.19458744 17.38560046 21.08006391
H 19.54170802 22.41867673 19.47961454
H 19.91942065 23.66801392 20.32786042
H 16.65519597 17.96269575 24.64431099
H 15.26558147 18.80683951 24.25203892
H 18.24580024 19.76211975 15.51537468
H 17.13746763 18.96071813 16.30412607
H 18.37301663 20.45409416 23.60990989
H 17.25997453 20.49491666 24.62244821
H 20.33221710 17.31155891 14.65619998
H 19.00763486 17.69160363 15.43397013
H 20.63806668 19.96864641 15.51576732
H 19.94726723 20.55069897 16.76029847
H 17.87328289 21.28592633 21.46699474
H 19.40901062 21.28912010 21.78794561
H 18.63416130 18.32998431 25.02755481
H 18.52802435 16.84175732 25.12729763
H 19.75168889 17.56786748 19.05482907
H 19.57333427 17.28038311 17.54872015
H 15.35290702 15.87098291 21.31691387
H 16.07864778 16.25156990 22.78885462
H 19.87790320 19.90388824 19.26175735
H 18.71789556 20.29365377 18.39571375
H 17.43642482 15.68043852 20.98519163
O 18.43163614 15.60236852 20.83318731
O 17.05225612 18.74857325 18.38114855
O 19.64007008 18.25751751 20.87923320
O 19.11732035 23.10864978 20.04615597
O 15.88233756 18.06946266 24.01789038
O 17.58096268 18.98378156 15.39936169
O 18.22659947 20.36153317 24.60267890
O 19.98841727 17.42012540 15.57278036
O 19.90728460 20.64337095 15.72669530
O 18.62000670 20.67539782 21.66590220
O 18.24489826 17.64826252 25.56853074
O 19.14317185 17.06749560 18.42456664
O 16.11068874 16.08285823 21.86854336
O 19.67338273 20.57458393 18.57905452
42
i = 0, time = 0.0, E = 0.0;
H 15.94183391 14.77663638 24.01962002
H 16.48898018 17.65532269 16.77908420
H 17.73852204 16.92278520 17.09400973
H 20.25373676 18.66352819 21.16121793
H 19.13416330 18.86614860 20.15711713
H 15.49666556 22.43133100 22.81326847
H 16.22600511 21.16085093 22.30048119
H 16.07996085 19.23078372 23.22006944
H 16.27649970 18.93495674 21.65626879
H 17.17024185 22.42654492 18.76016426
H 18.47916479 21.53452797 18.63706770
H 18.37673509 20.19678002 23.91511169
H 18.25673829 19.19365685 25.04474445
H 19.44372775 15.88327614 16.06228769
H 19.01339936 15.06981329 17.22486610
H 20.29923947 20.70759526 17.75083943
H 20.10138243 20.43849694 19.29313294
H 19.44409749 21.65536727 22.07718424
H 18.15132657 21.96577429 22.97311510
H 19.05328467 18.15088087 23.16882846
H 20.21740401 17.10491958 23.10677616
H 20.61454024 17.58567055 14.44948446
H 21.26051252 16.92202469 15.64846018
H 17.07073304 19.80301783 19.50758657
H 17.20447915 18.23118282 19.37239940
H 21.62348099 17.55918531 18.62859343
H 20.51535060 18.37002782 18.05298540
H 16.61476294 14.10288293 22.86219723
O 15.95959665 14.79686045 23.02970145
O 17.16499521 17.64949272 17.47876388
O 20.11261558 19.02768906 20.24511739
O 16.32337318 22.13446358 22.33845144
O 15.71682005 19.42417149 22.32194697
O 17.50103786 21.56019778 18.61711203
O 17.86653871 19.34938109 24.15783142
O 18.64958959 15.57944669 16.46095996
O 20.05979027 21.18996796 18.59274577
O 19.05778103 21.56211738 22.97655236
O 19.77870494 17.79806401 22.61550872
O 20.87304478 16.72457703 14.80455429
O 17.39035557 18.99751495 20.01298878
O 21.07392603 17.57211418 17.80967451
42
i = 0, time = 0.0, E = 0.0;
H 16.41119373 17.62917859 20.63292709
H 18.64035407 17.66484926 18.95819727
H 19.10282847 17.56456210 17.45307410
H 22.03867473 17.55048976 21.35177922
H 20.63215403 18.10722043 21.26184583
H 19.76329693 20.53030083 19.54274615
H 18.35449068 20.74947491 19.25666558
H 16.30686243 17.35460339 23.09459011
H 15.75602249 18.81632461 22.76412726
H 18.31636045 20.95434097 17.02581145
H 18.10270219 19.67227070 17.62838883
H 17.29188392 19.07691894 25.70880243
H 16.72657996 17.77912318 26.39418831
H 15.86943411 18.37369009 15.59460374
H 16.89432937 19.24601315 16.29384480
H 20.71597544 20.84653238 17.07772403
H 20.85742886 21.39411790 15.62689467
H 17.79279183 19.90535824 23.40184844
H 17.08477013 21.25509948 23.72537019
H 18.37292545 17.19914054 23.28036830
H 17.89142044 17.19488052 24.75885500
H 17.83056190 17.07840799 15.80969400
H 19.17202671 16.75772274 15.05401074
H 18.70475003 19.45573029 21.31759941
H 17.82562592 18.35428204 21.89090246
H 21.72248979 19.42571209 19.47562440
H 20.56877690 19.17474751 18.44975891
H 16.83769729 16.26691542 20.04871672
O 16.90385729 17.21412052 19.88376276
O 19.13601922 18.19856513 18.25156092
O 21.47553817 18.13250105 20.81949621
O 18.87318640 20.78665249 20.05063035
O 15.85519136 17.90722732 22.31746561
O 17.54496892 20.47714893 17.40710475
O 17.58438015 18.28855837 26.21165050
O 16.84015826 18.59751536 15.57700216
O 20.18002197 21.14664005 16.27709130
O 17.08174371 20.26759983 24.01503256
O 17.66576715 16.84978905 23.83306439
O 18.73148934 16.67456706 15.93416543
O 18.62120962 18.93015584 22.16844792
O 21.09528300 19.90547352 18.89549952
42
i = 0, time = 0.0, E = 0.0;
H 19.10108264 14.49892299 18.25244565
H 16.31575444 17.27899382 19.18199133
H 17.22499374 18.03240440 18.12703764
H 21.44353016 19.47932072 21.45910417
H 20.00703089 18.93399216 21.34638825
H 18.61262651 22.75221264 19.95455444
H 17.44444007 21.69673650 19.87846778
H 18.48636270 14.93218612 22.96981835
H 18.01135047 16.30155716 23.46613802
H 16.33933690 20.09286534 18.71697921
H 17.09625221 21.35708463 18.09304323
H 18.22081274 20.53721550 24.49804446
H 17.07635866 19.94889330 25.31233465
H 15.97745961 17.65054461 14.33452048
H 16.84448347 16.76975318 13.38444345
H 18.72893722 21.98483596 16.49854733
H 19.41092157 20.92424034 17.35451068
H 19.68466590 20.95950182 22.87180418
H 18.45904734 21.69542543 22.23990640
H 18.97789125 18.18417657 25.02011751
H 19.75057672 16.89722988 24.38161700
H 18.01444103 17.15378214 15.65161352
H 19.06695103 18.10588232 16.35831186
H 18.19962098 17.78356291 20.20776770
H 18.41024630 16.74415653 21.37636969
H 20.65808392 19.96817724 19.07330041
H 19.81276944 18.68537907 18.82516042
H 18.85563375 15.64547462 19.28883753
O 18.53738027 14.79638344 18.97615896
O 16.84648565 18.11689526 18.99234517
O 20.50709279 19.77916886 21.60888335
O 18.12258209 22.13886282 20.53043737
O 17.84150701 15.66713726 22.72155546
O 16.38147261 21.05207248 18.76271848
O 18.08856017 19.99926995 25.34391673
O 16.86718727 17.52282597 13.97495485
O 18.78742381 21.66315370 17.45283932
O 18.82463441 21.50319155 23.14830962
O 18.91619793 17.17874881 24.86462662
O 18.59214561 17.17576542 16.46466736
O 18.90820533 17.38250067 20.77070810
O 20.32716012 19.42470041 18.32948608
42
i = 0, time = 0.0, E = 0.0;
H 15.57514079 16.67701204 18.06225790
H 17.65642491 16.83219010 18.19662443
H 17.42968995 16.69143048 16.60246071
H 19.92519769 18.65514973 21.28727528
H 18.92608803 18.65921694 20.22388715
H 19.16004659 23.52224995 21.33477868
H 19.07144367 21.95055098 20.85126721
H 15.34795833 16.60922022 20.61880924
H 14.95502567 17.38645683 21.89024429
H 20.03064747 20.70807158 19.15108291
H 18.60556717 20.84770339 18.66297698
H 19.00053638 19.41113289 23.09016530
H 20.52603506 19.58777889 23.15872700
H 17.22542808 19.21439672 17.38475150
H 18.58318478 19.51233867 16.78583568
H 20.86136531 18.93281776 16.99140993
H 21.06505702 20.01946793 15.94691784