66
i = 0, time = 0.0, E = 0.0;
H 25.59409433 9.39002526 14.43607955
H 25.94780491 13.31367997 10.64527428
H 24.74792551 12.93923758 11.60938161
H 24.15840255 12.42100306 16.87395494
H 23.24083430 11.12856290 16.89910600
H 18.51122818 9.41417692 13.29433845
H 18.36522818 10.42014178 12.18464288
H 23.50378813 9.05586560 15.74715415
H 21.90762227 9.52677927 15.76810509
H 18.82694343 12.33080973 10.68050282
H 19.57561387 12.75845217 11.95752659
H 20.54349948 13.37217053 13.57045418
H 19.53055153 14.66766179 13.45452205
H 17.95900194 11.95945829 15.66794973
H 18.67270068 12.94916582 16.75266811
H 22.67707365 10.66064513 11.68714285
H 21.35015684 10.48614905 10.88279491
H 26.51508214 13.51829915 16.41013192
H 25.33582578 13.83387403 15.33561410
H 22.22799089 12.70539811 18.08164919
H 22.16045869 12.97729517 19.63143230
H 18.86349717 6.58174670 12.44138521
H 18.58135314 7.94763797 11.87111769
H 22.18772036 14.11161370 12.40877993
H 23.12879110 12.96719268 12.97350299
H 20.15290249 12.38860065 15.38250476
H 21.86321575 12.66849243 15.61432620
H 22.66901382 11.15757671 14.07497002
H 24.24651153 11.15192810 13.56890491
H 18.79262571 14.31463274 18.50817423
H 19.94036476 13.23235127 18.67130333
H 19.35256712 15.46490755 20.15790630
H 20.16926352 16.02528723 19.05789217
H 26.08735821 11.88812300 13.15864035
H 26.05239120 11.83795229 14.75141799
H 20.84804548 9.07673689 13.79571702
H 20.65648721 10.50822864 14.02858716
H 21.00565543 15.90509710 17.48838441
H 21.80182734 15.09222658 18.49625315
H 21.94826143 8.66155679 12.13319311
H 24.88039324 8.22093079 13.77146931
H 20.71821525 7.72768103 12.28132868
H 23.73557596 14.57661669 13.84841480
H 24.40026715 15.98586735 14.39474187
O 25.05556849 8.62150435 14.66534393
O 25.73189692 13.01511695 11.58030315
O 23.24086612 12.10119005 17.15899625
O 17.94279953 9.55890274 12.49542083
O 22.79814735 9.60089694 16.18053485
O 19.21606164 11.97123362 11.52996715
O 20.16595302 14.06266245 12.90322547
O 18.52573467 12.76877148 15.74072149
O 22.30788333 10.16670899 10.95345975
O 25.65780377 13.16490513 16.03849757
O 21.67145662 13.25229696 18.82593156
O 19.18205878 7.16796585 11.71254238
O 23.17408811 13.93295095 12.53727763
O 21.12742826 12.36532984 14.97050569
O 23.26382802 11.36546458 13.27852185
O 18.98559293 13.34919601 18.22811310
O 19.17860211 15.92980892 19.26143042
O 25.76877580 11.31373053 13.91851603
O 20.33215476 9.68386066 14.36782645
O 21.70037067 16.05076631 18.19269230
O 21.59997121 7.98458318 12.75615223
O 24.25981368 15.05594012 14.57470996
66
i = 0, time = 0.0, E = 0.0;
H 24.75076000 9.57774563 13.48608106
H 24.14855151 14.15832815 12.76511810
H 23.81542111 13.01107230 13.69258163
H 24.24966961 11.55276102 17.04264272
H 23.15435929 10.47875271 16.86237976
H 18.51274408 10.16819321 13.48094870
H 17.65283464 10.88951944 12.36868834
H 23.62120564 8.79231936 15.37791176
H 22.25381195 8.50448318 15.79278003
H 19.20356819 13.27413508 12.08099913
H 18.85223736 12.74102584 10.77602047
H 20.76506887 15.11840145 13.26760266
H 20.55407290 16.04660914 12.07405391
H 21.37423980 11.94578731 16.57921444
H 19.75740128 12.03318013 16.42560178
H 21.75579057 11.66201777 12.22596134
H 20.62027354 11.73403706 11.03978571
H 26.66045744 11.64679254 17.10826142
H 26.07705969 12.90028861 16.32658071
H 23.04684651 13.30665362 16.96747125
H 24.09089844 14.45427359 16.63222657
H 18.85465983 7.15540350 13.76898985
H 18.19166244 8.25817986 12.82968319
H 22.06413571 14.76581609 11.57694826
H 23.04855586 13.68911949 10.89539462
H 20.58300783 13.63166912 14.91052191
H 21.77391316 14.52057704 15.40196135
H 21.94540153 12.02571706 14.45301636
H 23.00100648 10.92252422 13.85394099
H 17.65554525 12.13733758 16.77559240
H 18.39819270 12.41953032 18.04413416
H 19.61737841 12.04556167 20.02582513
H 19.71790682 13.54437944 19.46973277
H 25.84675624 11.56243685 13.16861133
H 25.73495874 11.15765363 14.67100235
H 20.81869470 9.39519316 13.69365678
H 20.48820806 10.41848623 14.93514307
H 20.39836281 15.27630860 18.60373137
H 21.98238199 14.71487086 18.43422937
H 21.47544595 9.52009088 11.57981609
H 23.48589270 8.78273573 12.86720722
H 20.74043303 8.21948971 12.10193342
H 25.33592634 14.28479316 14.82958809
H 26.21837119 15.22338543 15.89238038
O 23.84965950 9.36518446 13.65095880
O 24.55148538 13.63980700 13.46217363
O 23.24365949 11.45452630 16.89260258
O 17.72320354 10.06760553 12.87099113
O 23.06950453 8.72117267 16.24980551
O 19.15668094 12.41120858 11.63057143
O 20.56316407 15.06869208 12.30867962
O 20.66375005 12.07486194 15.89634174
O 21.58642043 11.42513163 11.30118010
O 25.85829516 12.00029529 16.73722409
O 23.15169684 14.32062808 16.87162803
O 18.77154304 7.50477650 12.81542174
O 22.98570814 14.64302480 11.10959398
O 21.00970132 14.48407148 14.73373969
O 22.57382950 11.87183938 13.66298050
O 18.45221153 12.55139169 17.03161870
O 19.09542998 12.79144442 19.65399619
O 25.96907396 10.78539753 13.78524883
O 20.19366175 9.59799119 14.44598988
O 21.12311379 14.69546812 19.02383131
O 21.63828857 8.62078766 11.98331520
O 25.72860265 14.36669356 15.70827808
66
i = 0, time = 0.0, E = 0.0;
H 24.52155969 7.53358128 13.93548235
H 24.95611881 15.74113567 11.91720229
H 24.34120976 14.79474759 13.01618613
H 24.18409853 11.32079528 16.67697049
H 22.83179598 10.36920533 16.45258077
H 18.61366175 9.67488260 13.50932566
H 18.73114338 10.52296147 12.23068243
H 23.06438449 8.27868560 15.60422361
H 21.56182129 8.82134928 15.83138344
H 19.69307014 12.27005873 10.85507683
H 19.30130139 12.95051637 12.23457018
H 19.84023484 14.82408721 13.24158659
H 18.36005775 14.65431508 13.08675902
H 21.46093862 11.86302623 15.99555033
H 20.00533148 12.00225809 16.55207032
H 22.69232905 11.15067376 12.52913780
H 21.14238474 11.07367591 11.93550672
H 26.02140706 11.35624566 15.33830049
H 25.66667722 12.57962279 16.16278200
H 22.95948628 12.56468084 18.02720590
H 23.71490620 13.95605112 17.79543669
H 18.83009447 7.34925607 10.40081849
H 18.72583809 8.43300663 11.55717237
H 22.97262329 13.52205865 13.76861709
H 22.23430448 14.88011840 13.95730125
H 20.55374093 13.88149005 15.54161265
H 20.79901286 15.32348560 15.83293865
H 23.50581457 11.55620641 14.63549683
H 24.55528358 12.04703170 13.43684183
H 18.59356308 12.64541771 17.95785173
H 19.43168115 11.61375086 18.68303112
H 18.15668843 15.17194910 17.58491910
H 19.52958232 14.86498781 18.07080624
H 25.80337837 13.34208001 12.84290153
H 26.13827445 11.98990530 12.02181430
H 20.67249338 9.60714474 13.84742793
H 20.31368919 10.77660349 14.93682402
H 21.71866594 16.18555927 18.64361357
H 21.88800665 14.62680365 18.27789409
H 21.86378943 8.95827372 12.44296941
H 23.03767481 7.58741295 13.59187592
H 21.04177631 7.76373115 12.06022260
H 25.55678455 15.04900573 15.73388450
H 24.45952007 14.52892568 14.95700842
O 23.65897469 7.35576574 14.32220559
O 25.18147540 14.94191295 12.43817858
O 23.15153337 11.33349353 16.34983804
O 18.17236491 9.79523803 12.61005356
O 22.45963525 8.92074648 16.20538901
O 19.55827764 12.06878797 11.79518986
O 19.19077855 14.71817297 12.51256625
O 20.59106350 12.21592583 15.78731140
O 22.06046201 10.67166823 11.80305846
O 25.74121504 11.60514825 16.23029935
O 23.00762579 13.54191023 18.30763254
O 19.39215298 7.88968350 11.04340305
O 23.13430082 14.51619226 13.79876001
O 20.40988530 14.76351684 15.11936896
O 23.52225949 11.95260310 13.69100201
O 18.93085723 11.69682186 17.84488445
O 18.74120471 14.33453438 17.73874419
O 26.04178941 12.34983294 12.90617826
O 20.16464101 9.84485786 14.65998025
O 21.22440247 15.45726197 18.16966118
O 21.56737856 8.10903744 12.84656851
O 24.94601503 14.23151349 15.73688052
66
i = 0, time = 0.0, E = 0.0;
H 25.30425190 9.09815803 14.07769738
H 23.26535666 15.43893369 12.89436165
H 23.53205805 14.33953529 13.80918410
H 24.90674186 12.05332977 16.66563667
H 23.56135288 11.10731740 16.62743107
H 18.77317068 8.78972912 14.28270502
H 17.36294999 9.05453689 13.78884859
H 23.62789337 9.34626782 15.91660421
H 22.06700500 9.79315837 16.16811439
H 19.43293264 11.92278767 11.67446245
H 18.39386318 12.84716453 11.23551483
H 19.48415179 14.08754585 12.88694870
H 19.06249694 15.60537691 12.90220400
H 19.51697125 11.74500080 17.01945524
H 20.04556978 10.74476378 16.01755155
H 22.44699564 11.60718432 12.29258219
H 21.70667585 10.65193524 11.41199510
H 27.98398233 12.92866078 15.15219041
H 26.71532701 13.64556947 15.12889381
H 22.76703547 13.28490024 17.01397336
H 21.88223665 12.93245758 18.19669276
H 19.55923073 9.02440213 11.27336426
H 18.71215073 7.88314330 11.74030644
H 21.30112754 15.28133661 11.48755083
H 22.16885452 16.58711484 11.41581798
H 19.89565542 12.80566792 14.83786944
H 21.14355924 13.01344168 14.02345422
H 23.82110493 12.00534257 14.54248166
H 24.70364362 11.86123659 13.37481927
H 19.70208278 12.51990503 19.31594563
H 19.47518590 11.05215625 19.28063173
H 18.19680134 14.55081549 19.77216934
H 19.20291414 14.69853763 18.57177767
H 27.10274237 10.57673775 12.90050378
H 26.61711467 11.40379365 14.12605705
H 21.02092711 8.57487629 13.92466842
H 20.89309659 9.99467709 13.69286258
H 19.45299482 14.71131379 16.42643433
H 20.83906680 14.57375421 17.19458940
H 22.18763440 6.61135864 12.42179157
H 23.81547013 8.44794834 14.18068784
H 20.93473330 7.53836011 11.97664043
H 25.31130962 15.37186500 14.80062234
H 25.54736042 15.66988374 16.29294849
O 24.71644330 8.35766688 14.45426533
O 23.72801898 15.29293418 13.76501972
O 23.94530350 12.06015949 16.48461429
O 17.96873202 8.33881851 14.01328639
O 22.97095522 9.70352810 16.55205054
O 18.47743870 11.88118225 11.50163759
O 19.15245979 14.87352149 12.28183090
O 19.63474714 11.62290226 16.04283411
O 21.54701030 11.22235564 12.20321512
O 27.06741407 12.69997533 15.21117881
O 21.95366644 13.63654836 17.53979657
O 19.58837282 8.07434205 11.29256221
O 22.24994455 15.55092196 11.29541637
O 20.26440994 13.41342868 14.15545613
O 23.76400068 12.16614308 13.57213363
O 20.20310456 11.69667509 18.98059431
O 18.99742063 14.12935078 19.40186660
O 26.28226478 10.70880036 13.45415505
O 20.80311087 9.38036511 14.45277177
O 20.00164464 15.15405212 17.07929075
O 21.62819441 7.40638865 12.69049784
O 25.94159055 15.21074313 15.55409762
66
i = 0, time = 0.0, E = 0.0;
H 23.42578998 8.90010548 13.26872455
H 25.11686011 12.23673856 13.02110801
H 24.31245740 13.15904591 11.93138788
H 23.88307917 11.87426627 16.51226552
H 23.12787729 10.46289413 16.65715287
H 18.60875633 8.63880420 13.61048386
H 18.38468842 9.92738146 12.89143213
H 23.31631572 8.43121021 15.84704570
H 21.77147682 8.70711577 15.98169962
H 19.92610504 11.92662916 11.86163148
H 20.68255274 12.11818008 13.29362685
H 22.12791255 17.02803353 11.39165254
H 21.78998349 15.66766255 12.22888522
H 20.38353531 11.81527689 16.74174052
H 18.92147160 11.57071819 17.41109956
H 22.35072225 12.39120306 10.58910650
H 21.38522453 11.49860614 9.90001426
H 26.52003390 12.86478407 16.30022392
H 25.62606628 13.73122049 15.44631325
H 22.39042669 12.39873101 18.44206845
H 21.04825105 12.37452298 19.18205531
H 19.69245959 6.89608096 11.08278012
H 18.97113670 8.24824211 11.58988080
H 23.00307136 14.81286125 10.60794374
H 23.80225698 14.20533146 9.36279302
H 20.11602551 14.79700242 13.59658716
H 21.36694481 14.02034642 13.92163882
H 22.33980656 11.83268951 15.10184732
H 22.86580966 12.59820167 13.81206076
H 18.57559095 12.82954069 19.72478326
H 18.12682819 11.37962226 19.59657481
H 18.30813816 14.67501308 20.82091787
H 19.44941645 14.71000237 19.59993484
H 25.30662931 10.53690971 13.91243957
H 26.04638693 11.58639218 14.72974412
H 20.80533507 9.48386037 14.21058868
H 19.83868365 9.87593914 15.51612204
H 19.43329593 14.23692618 17.62976867
H 20.91273855 14.10119177 18.32465881
H 21.79028096 9.92066718 11.94908358
H 24.95372489 8.42311732 13.28793795
H 21.15507898 8.51911440 12.08376054
H 25.02732214 14.32655783 13.64648091
H 25.24313382 15.73088017 14.20962670
O 24.22664686 8.79419729 13.81031348
O 24.39840368 12.95830057 12.89508766
O 23.02459969 11.45322909 16.78626966
O 18.03018272 9.00477788 12.90936429
O 22.66304669 8.83598032 16.46448102
O 19.81484339 11.90856267 12.83809216
O 22.34375173 16.10497784 11.51799109
O 19.43776312 11.53481008 16.55764466
O 21.75830333 11.62423894 10.78537093
O 25.64171388 12.81314090 15.92174193
O 21.90073043 12.84732621 19.15585523
O 19.75151567 7.92698536 11.00225837
O 23.41126668 14.02152627 10.22252996
O 21.10088078 14.95455535 13.65832442
O 22.08366495 12.32750529 14.26746630
O 18.34154303 12.15115642 19.00302436
O 19.14280247 14.26817987 20.49545870
O 26.10298698 11.13841025 13.88027596
O 20.30779883 9.13453671 15.05577759
O 20.17187318 14.81483951 18.02272792
O 21.68947899 9.14977535 12.60717229
O 25.61894379 14.83347137 14.24164145
66
i = 0, time = 0.0, E = 0.0;
H 24.40182493 9.46547090 14.49440487
H 25.85950226 13.42208743 11.94394684
H 24.79676173 14.39721423 12.20962331
H 23.17708560 12.42919346 16.61711834
H 22.54106333 10.97966564 16.83180425
H 19.28266842 9.96950567 13.00300688
H 19.39555735 10.72055171 11.54562481
H 23.04998068 9.08531394 15.69681730
H 22.32873528 8.88589783 17.15810547
H 19.93175342 12.73547927 10.13875671
H 20.02929620 13.25159461 11.53900082
H 20.54809788 14.62215245 13.62375175
H 19.63911695 15.22828501 12.51635280
H 20.60295086 12.36676012 17.03691630
H 19.09206527 12.25799701 17.25290314
H 22.27620643 10.25373070 12.77049820
H 21.19142085 9.92876833 11.69241395
H 25.24699530 11.41845671 13.01649726
H 25.86483360 11.98096446 14.42740735
H 22.03898853 12.52322339 18.69024132
H 21.72725222 12.82942759 20.22162868
H 20.09022478 6.52528184 10.85294171
H 19.74445638 7.81452292 11.64212975
H 22.28008758 15.26570349 12.03018588
H 22.94327181 16.57402540 11.46384972
H 20.37562838 14.08216245 15.64806960
H 21.66788378 13.95051325 14.76781453
H 21.67050371 11.46949055 14.58057138
H 23.16696385 11.77188614 14.31173308
H 18.06995229 13.28910898 19.13404937
H 19.18714327 12.44409375 19.45851225
H 18.96005804 15.26772509 20.74565631
H 19.09390653 15.73632462 19.29758453
H 24.93503320 10.62474953 10.63484423
H 23.49101355 11.02191771 11.27261575
H 20.64092022 9.68273630 15.33125304
H 19.81802567 10.94700257 15.29470330
H 21.33260974 15.14714632 17.50414670
H 20.86220810 14.32734755 18.69535765
H 22.66939027 8.39076548 12.11149709
H 23.59532211 8.21020869 13.86776484
H 22.15747814 6.98291618 12.30090042
H 26.28720320 13.95292434 14.38669166
H 27.40766589 13.40733229 15.22666170
O 23.88005387 8.62272311 14.72068524
O 25.68946622 14.16401459 12.56310725
O 22.62344485 11.93348734 17.24816393
O 19.53534308 9.83490531 12.02944768
O 22.40123106 9.54766823 16.41721908
O 19.76297883 12.45279982 11.04574955
O 20.47284465 14.71470415 12.60928777
O 19.71623103 12.26415921 16.54412224
O 22.18902705 10.01959086 11.81906207
O 25.24520443 11.23623856 14.02071119
O 21.36602911 12.89103805 19.32429609
O 20.10393689 6.91313068 11.77224391
O 23.13608289 15.62903830 11.71040674
O 21.05144420 14.60923988 15.19961115
O 22.28022682 12.15015885 14.19074900
O 18.28993141 12.35817342 19.10207233
O 18.40708421 15.45332377 19.96895872
O 24.43838661 11.39170372 11.09840196
O 20.19724262 10.22348765 14.65318286
O 20.66005356 15.25175988 18.24107476
O 22.99576985 7.48153179 12.47946690
O 26.44263896 13.44702139 15.20484351
66
i = 0, time = 0.0, E = 0.0;
H 25.03371268 9.41423288 13.65059643
H 25.82605672 14.02578771 13.76122963
H 24.65654165 14.58475583 12.96239128
H 24.03328880 11.26190084 16.96718874
H 22.83823945 10.34297553 16.21254707
H 18.42372024 8.71496645 12.90648565
H 17.16471891 9.17044191 12.27920676
H 23.19527530 8.66785865 15.21817055
H 21.65974680 9.05503977 15.05550712
H 19.45602122 10.66547833 11.33075774
H 19.13814617 12.10873593 11.81994328
H 19.21457709 13.91878940 13.43548831
H 18.40902418 14.51957176 12.18638767
H 20.93528279 11.36563835 16.70470654
H 19.55122815 11.75801333 17.60598995
H 22.35950189 11.84947742 12.85610216
H 21.30348118 11.83937928 11.51311974
H 26.11066174 11.99719051 17.72566848
H 25.48592935 13.02073005 16.83354033
H 22.49916663 12.92357195 17.71151186
H 22.48634877 13.81662304 19.02397695
H 19.39803882 7.24270202 9.75755674
H 18.84770383 8.45462664 10.42052325
H 23.87887494 14.03588062 10.85999434
H 23.45064739 12.86260225 11.73247617
H 19.92495177 12.96177588 15.50422299
H 21.21337411 13.21485452 14.61494400
H 23.09453353 12.25517230 15.34340371
H 23.56371453 13.52645352 14.39451352
H 18.37666593 12.25826671 19.77252550
H 19.12127417 13.37769476 19.24561625
H 18.08150240 15.80503499 19.19162233
H 19.35956104 15.35528494 18.43282024
H 24.69851034 11.68039506 14.03063885
H 26.06438440 11.53556543 14.65100308
H 21.02861565 9.17783371 12.97357029
H 20.33635954 10.39778938 13.65905513
H 20.22575949 14.88209442 16.39878200
H 21.38657206 14.85745326 17.35174168
H 22.18424938 10.03407349 11.45750846
H 24.00661962 8.36535253 13.08402743
H 21.54372320 8.76117500 11.12822343
H 25.04375157 14.89711550 15.85984426
H 24.36710669 14.63439300 17.35953492
O 24.48887241 8.65525585 13.90310827
O 25.06490225 14.68431245 13.88565275
O 23.14289639 11.26974612 16.59116786
O 17.95388302 8.71006491 12.06760395
O 22.40752521 8.90587823 15.74248080
O 19.82157256 11.53917689 11.32018052
O 18.85470704 13.74238039 12.49133963
O 20.07044616 11.85176245 16.74050043
O 22.30446794 11.67812186 11.84798074
O 25.72791682 11.99850546 16.85952742
O 22.71544352 13.82715784 18.06139979
O 19.63805863 8.16566207 9.84163685
O 23.81225830 13.79158652 11.78415799
O 20.28544286 13.66481744 14.79793261
O 23.13626434 12.65392548 14.32228199
O 19.07285160 12.41578285 19.06215672
O 18.85211740 15.25193775 19.28943488
O 25.58598728 11.34524572 13.78174374
O 20.36158145 9.40175630 13.66086262
O 20.53669965 15.34399773 17.18908933
O 22.14277613 9.10871664 11.78621486
O 25.19099136 14.58680901 16.81050883
66
i = 0, time = 0.0, E = 0.0;
H 24.99084820 8.83656883 14.32640726
H 23.05390590 14.83111207 13.50469420
H 23.66727164 13.44750057 13.90237331
H 24.23964168 12.50711229 16.61806080
H 23.01563932 11.36900101 16.56836576
H 18.75403907 8.11153129 12.20284266
H 18.25968808 9.51413974 11.96951149
H 23.25693721 9.37874428 15.31105955
H 21.79183174 9.72349953 15.79246018
H 19.59337046 11.14084499 9.89533680
H 19.82442673 11.56173367 11.39940073
H 20.50785585 13.56576600 12.80666368
H 19.59560993 13.71211868 11.50724204
H 19.10426784 11.39002393 16.01674636
H 19.23922645 12.64542869 16.89226221
H 22.70836120 11.51756361 12.11237468
H 21.64602820 12.27429030 11.33950552
H 27.90463589 12.54492445 15.78743450
H 26.62814807 13.29351387 15.81075055
H 22.33037842 12.88235128 18.13785847
H 22.04117560 12.84178490 19.65091062
H 20.70071294 6.27846078 10.62736635
H 20.85511641 7.70683342 11.12648768
H 21.56366923 15.03925222 11.75139316
H 22.91932506 15.49396005 11.33331625
H 20.25905283 12.97747801 14.87922744
H 21.61368615 13.92022312 14.60628438
H 23.30244905 11.16417791 14.33456554
H 24.70487552 11.27235273 13.57513886
H 18.88648247 12.07427399 19.37075298
H 20.17809368 11.72504588 18.54651015
H 18.88437405 17.04550291 19.64543752
H 19.83683978 16.33475425 18.63612055
H 27.14085322 10.21524197 13.78628353
H 26.60117055 10.96310629 15.07561848
H 19.39405577 8.64480362 15.77746106
H 18.93823607 9.15415985 14.49274624
H 20.37694163 15.04350697 16.73851357
H 20.84790397 14.62730383 18.15403555
H 21.89446413 9.51096156 11.61301346
H 23.78295491 8.37538617 13.34964689
H 21.50596487 8.84634086 12.99348569
H 24.70794244 14.57190544 15.46387380
H 25.27128655 14.93852127 16.98796441
O 24.08754935 8.39787717 14.28168823
O 23.47384162 14.34104999 14.27588310
O 23.27521112 12.32494760 16.84582187
O 18.37919939 8.93551990 12.74477394
O 22.73938517 9.99164849 15.86452907
O 19.16876091 11.14377195 10.79470794
O 20.56102874 13.68573790 11.77855672
O 19.43994925 12.31525941 15.95300632
O 22.03400180 11.34878750 11.43028589
O 26.97859310 12.33789385 15.74644520
O 21.57421945 13.01295904 18.82677993
O 20.14516543 7.14224710 10.71174314
O 22.38043214 15.47442075 12.14084204
O 20.78226763 13.56668695 14.22874411
O 23.74706727 11.64339504 13.55774277
O 19.19237446 11.61258012 18.53980334
O 19.01717588 16.92203184 18.70354996
O 26.37711163 10.21097729 14.44302891
O 19.23623379 9.50279540 15.34788545
O 20.69033569 15.42011235 17.57146070
O 21.87920233 8.61215143 12.08107396
O 25.54594504 14.81240249 16.00434332
66
i = 0, time = 0.0, E = 0.0;
H 23.99371946 6.82707348 14.02766658
H 25.37211208 13.18755428 12.29972486
H 24.91190222 14.44301899 13.16098519
H 23.98281086 11.12461692 17.08203350
H 22.73046871 10.16320236 17.33703864
H 19.50547337 10.20013139 12.56014191
H 19.27044181 11.08722615 11.21333530
H 22.62537375 8.21571051 16.11642614
H 21.37597449 9.01148451 15.74957607
H 19.83290635 13.46053186 9.84511023
H 19.39344991 13.68234982 11.35980797
H 19.17526638 14.12626728 13.98675351
H 17.98760302 13.88294849 13.00427858
H 19.63742631 10.76230011 17.49506679
H 19.24569733 11.84927918 18.54357681
H 22.71035388 12.90291736 11.26915370
H 21.25639644 12.31288507 11.20709832
H 26.25415682 12.41135682 17.14092254
H 26.30557140 12.32893948 15.70927751
H 22.48373496 12.66541783 17.13489349
H 22.15442470 14.24721517 17.69490447
H 21.17207941 8.72977237 9.52944220
H 20.23495930 9.05167929 10.76420533
H 22.29065651 15.98535102 10.86748606
H 23.22450783 14.99192984 11.54858008
H 19.56017408 12.80362733 15.82096087
H 20.92819250 13.51766897 15.95161288
H 22.59791563 12.63525250 14.70897480
H 22.27457975 12.08959120 13.26046105
H 19.10959242 12.88735988 20.74706725
H 18.97652157 11.23730162 20.74901868
H 19.14469797 15.19688613 21.06344964
H 20.16759130 14.58381308 20.06501675
H 24.38333029 11.56017190 13.22546431
H 25.77298928 10.99879205 12.94847385
H 21.44149513 9.46450863 13.61554299
H 21.25364586 10.73303708 14.35639328
H 19.40430561 14.21873303 17.56336312
H 19.37981070 15.65820050 18.03288908
H 22.67415598 9.87506243 12.14005327
H 23.34557878 8.15309529 13.58664195
H 21.86312841 8.57216231 11.59285866
H 26.89443246 14.31327588 13.39225731
H 27.66098515 12.95362348 13.76451262
O 23.78084864 7.72192111 14.39244090
O 25.11102392 14.17833714 12.22361325
O 23.07591038 11.07933243 17.43638443
O 19.19189623 10.18183277 11.62359858
O 21.77287136 8.49719976 16.58189730
O 19.42527131 12.98890988 10.56778243
O 18.88358568 14.21849161 13.01783685
O 19.11380774 11.56188850 17.56294963
O 22.13338083 12.13131430 11.61733633
O 25.86940388 11.88602969 16.42241143
O 22.17861418 13.60157548 16.98108221
O 20.80383418 8.27694968 10.37788799
O 22.36496275 15.00051795 11.01709679
O 20.02462231 13.60402367 15.50903514
O 22.79972034 11.85556717 14.12633711
O 19.11486424 12.03436411 20.18452314
O 19.73758640 14.40991378 20.95458149
O 25.16295790 11.65848224 12.55465791
O 20.70919051 9.91423250 14.16778533
O 19.88748366 14.84284498 18.18017515
O 22.45540696 8.94994310 12.32665018
O 27.25644347 13.77787413 14.12129241
66
i = 0, time = 0.0, E = 0.0;
H 23.56989934 8.93657753 13.36210035
H 24.01858834 15.04416998 12.90586412
H 25.25360770 15.05325707 12.15100421
H 24.84486953 11.71424458 16.97556171
H 23.75508673 10.53671947 16.80786295
H 18.75434001 10.03119436 13.26367399
H 17.32046763 10.48660754 12.43071884
H 23.51229604 8.60871485 15.51410672
H 22.83299749 8.37222243 16.93744706
H 20.17943375 11.12667151 11.74214375
H 20.92547294 12.32417549 11.47368009
H 20.07974099 13.78389637 13.13364472
H 19.77537623 14.89909107 11.93123327
H 18.13342708 10.80738902 16.01650359
H 18.51128646 11.88844025 17.07417208
H 22.70659902 10.53600975 11.90963878
H 24.08609733 10.65356857 12.67270342
H 27.32299689 12.03677299 16.04394908
H 26.27548841 13.13104084 15.75725032
H 22.49939813 12.56650969 18.24195800
H 21.16936714 12.88931142 19.06989837
H 20.48272262 9.09757261 10.31495093
H 18.98445715 9.07363346 10.84989748
H 21.88511446 14.76873482 12.08829088
H 22.40962969 15.77018570 11.16866674
H 19.27301719 12.92410909 15.04977414
H 20.78952070 12.99575074 14.64921067
H 22.28012246 11.70530463 15.64542120
H 22.95095366 12.09094843 14.32834198
H 18.28157834 12.03695140 19.60271028
H 18.27488185 13.35175326 18.72669943
H 18.59000141 15.61222137 19.87074796
H 19.48166946 15.45273468 18.59722966
H 24.94354867 12.75464107 13.39870518
H 25.27403939 11.72281815 14.56702340
H 20.67962365 9.14224515 13.81339015
H 20.81331782 10.58234611 14.45366002
H 20.52066919 14.89163557 16.56785039
H 21.49155850 14.62745099 17.68125113
H 22.02447670 8.45222180 12.10745585
H 23.44362782 7.37414409 13.67113511
H 20.75363179 7.82997449 11.67428474
H 26.50367975 15.49068788 15.92239117
H 26.04849401 14.85127571 14.55479969
O 23.87809764 8.16319891 13.94194272
O 24.97104323 14.77968937 13.07204621
O 23.83532759 11.51091746 17.01786599
O 18.22226308 10.02542676 12.37132258
O 23.52548439 8.86980925 16.47401185
O 21.08621634 11.35618535 11.45829496
O 20.24570276 14.05018290 12.05332402
O 18.24465664 11.84092987 16.06358911
O 23.48212557 9.96156452 12.21250906
O 26.37490965 12.12756502 16.09922165
O 21.94012682 13.29678896 18.65918311
O 19.67240791 8.51593623 10.32457238
O 22.69748072 15.36665671 12.01684559
O 19.95232550 13.50598952 14.66053452
O 22.02606671 11.85674497 14.64489763
O 18.52679985 12.41393233 18.70626434
O 18.60677764 15.13170828 19.00754653
O 24.76032024 11.86405782 13.69873880
O 20.13839368 9.87026706 14.16731343
O 21.09396833 15.43673559 17.21384655
O 21.28953146 7.87505000 12.53026220
O 26.42563526 14.62008939 15.45956701
66
i = 0, time = 0.0, E = 0.0;
H 24.62865537 8.77934005 14.14539473
H 24.11910508 12.87979726 13.09065934
H 24.19038769 13.49878988 11.63941394
H 24.40516257 11.90905586 16.37479212
H 23.06639084 11.11932258 16.61048090
H 19.09785956 10.53069902 11.53016234
H 17.70733033 9.68115713 11.63306910
H 23.11620400 9.33021887 15.83689177
H 21.62155034 9.78416905 15.56644881
H 21.05998490 11.27202281 11.98111360
H 20.23555446 12.56204030 12.12427198
H 20.04390294 14.65510494 13.60985776
H 19.49670332 14.93538732 12.06100852
H 20.10943367 11.16460864 16.32709306
H 19.61008468 11.94261261 17.63842989
H 23.42352869 10.40709622 11.85019278
H 22.89410485 11.01820079 13.24435367
H 26.82500879 12.33565585 16.42245237
H 26.29369418 13.12921220 15.14450477
H 22.89553260 13.46081800 17.81178072
H 21.77094233 13.86587128 18.71313587
H 18.86003349 7.07470011 12.08458697
H 19.24990578 8.09709061 11.02607041
H 23.09175134 15.71880363 11.76730042
H 21.79343635 14.94144842 11.99241859
H 19.96631291 13.31472889 15.81204412
H 21.34449137 13.98330139 16.17785904
H 23.21951141 12.42760722 15.19788506
H 22.02747706 13.21270206 14.37398532
H 18.65617782 13.27291817 19.23170949
H 19.29878006 12.10743019 19.96523942
H 17.00277039 14.13523590 17.65965947
H 18.20568998 14.93243561 18.07062306
H 25.75073710 10.94507472 12.98354520
H 25.90479665 10.85741987 14.50511598
H 20.56926919 9.31116126 14.03494315
H 19.61399365 10.56549316 13.95341483
H 20.20572502 15.68829184 16.55499722
H 20.54376280 15.59064317 18.13793709
H 22.01708304 8.85243328 12.84613164
H 23.40116797 7.81144370 14.35006447
H 20.88685707 7.88832144 12.55012575
H 25.76338781 14.33980058 13.02130851
H 27.12664036 13.98112377 13.57595447
O 24.07251233 8.32894142 14.82702212
O 24.69365801 12.85594641 12.28227218
O 23.53096326 11.99896099 16.86069240
O 18.58144876 9.64898436 11.30889488
O 22.29610955 9.83712937 16.27223664
O 20.20696658 11.71333232 11.66927976
O 20.15522126 14.46025216 12.66024832
O 19.53738800 11.93906761 16.60357284
O 22.68335095 10.40270993 12.53123833
O 26.14481545 12.37731800 15.72992435
O 22.36234018 14.28993487 18.06323905
O 19.56137932 7.21434562 11.45127751
O 22.73910485 14.76783281 11.64248611
O 20.68839062 13.89581753 15.40413899
O 22.81256388 12.57125388 14.29027211
O 19.55654221 12.82739203 19.33331202
O 17.50113158 14.30543401 18.46163363
O 25.81138275 10.29897691 13.75129677
O 20.21942683 10.08844610 14.51426701
O 19.80123335 15.79537206 17.47380503
O 21.53712765 8.09756026 13.24893426
O 26.54017245 14.76947403 13.56756810
66
i = 0, time = 0.0, E = 0.0;
H 24.55928388 8.31782198 14.40822988
H 24.07446463 15.28296034 12.50569578
H 22.53781538 14.90658746 12.71017598
H 24.23045617 10.91399849 16.04725381
H 23.01672488 9.99562769 16.28381331
H 19.40360257 9.43760867 12.98921483
H 19.41299115 10.84477038 12.28741934
H 23.46579927 7.80180114 16.36017035
H 22.04017336 7.97198387 16.89680531
H 20.67753354 12.39149897 13.32758533
H 19.55869907 12.27409090 14.35793663
H 18.55531617 15.56646635 14.14154220
H 18.42579952 14.29173134 13.30632621
H 21.06437634 11.60255187 16.64972979
H 19.61627423 12.15989554 17.22358646
H 24.50626753 10.34184331 11.97134713
H 23.17413484 11.09431897 11.73886552
H 26.55025826 11.23135457 15.79013656
H 25.53005022 12.21959494 15.16157627
H 22.68109284 12.86751291 16.80766834
H 22.42566148 14.10292873 17.73555385
H 20.73337195 9.40000118 10.16044969
H 20.02977546 8.76968720 11.23899320
H 20.14956177 15.36686650 12.38624593
H 20.99585074 14.32663205 11.74921114
H 20.37413079 13.74196396 15.71228675
H 21.16508271 14.58543113 14.77171439
H 22.90168165 11.75483829 14.27270978
H 23.19072221 13.03842060 13.54415614
H 18.58898925 13.52078959 18.88080373
H 17.87169918 12.84857869 17.69395830
H 18.33469774 15.66178333 20.04897897
H 19.04159422 15.61140278 18.70653157
H 26.25904308 8.99380459 13.01713322
H 25.93072676 10.09091652 13.90246000
H 21.85497352 9.08516472 13.53370735
H 21.53704061 10.11090905 14.57392549
H 20.54262008 15.54524554 16.92988873
H 20.55921446 17.04264400 17.25415142
H 23.09444052 9.02959598 12.00084208
H 24.10064862 6.85934458 14.29084180
H 21.98389699 8.05004756 11.68158668
H 24.76984207 14.46806243 14.81326802
H 24.26135513 13.78689166 16.10305603
O 24.45912538 7.51021910 14.92010864
O 23.47061616 14.65477839 12.96909752
O 23.20034707 10.94556283 16.11025052
O 19.28632069 9.85061859 12.11328478
O 22.92555188 8.42027496 16.93953705
O 19.71744294 12.41028025 13.37564554
O 18.22646761 15.23726780 13.26358478
O 20.20696508 11.97123606 16.37151649
O 23.95829512 10.70221802 11.24319656
O 25.78747015 11.23192158 15.17948017
O 23.04589606 13.80145187 17.03632214
O 20.71732031 8.51597406 10.51417351
O 21.11743796 15.20441430 12.10960896
O 20.42201204 14.66753216 15.47607227