48
i = 0, time = 0.0, E = 0.0;
H 17.12053390 18.48399764 19.16291073
H 19.02253401 20.66494962 17.49462743
H 18.26204810 20.99040949 16.16730372
H 21.96114133 16.74317355 20.84656670
H 20.38102842 16.74028273 20.47724903
H 17.01398578 23.13488475 23.19085138
H 18.69205891 23.19094493 23.04659140
H 18.74439200 17.22898861 19.22004509
H 18.27922091 15.77187156 19.83089770
H 20.56779530 23.23253492 21.30296308
H 20.30025657 22.17607156 22.29065922
H 16.78055248 18.51799282 23.16650125
H 17.05457031 18.05968469 21.65378635
H 18.70698525 17.51701181 17.26284397
H 17.97202073 18.86850323 17.21356218
H 19.84280836 20.96017999 19.54500531
H 21.19730812 20.69829815 18.82712165
H 20.55053619 17.91977290 22.48016619
H 19.06116985 18.26777310 22.88257777
H 16.65432561 20.45752185 23.98047924
H 15.03076501 19.95385847 23.87960548
H 21.55488554 24.06636546 19.40591943
H 20.80752522 22.77231337 19.08366981
H 18.37286191 21.53271542 21.41142471
H 19.47837548 20.44776735 21.52147557
H 21.75479157 18.89268030 19.83574180
H 22.26627704 19.90710421 20.79042910
H 18.34090392 21.36522173 24.21588843
H 18.63915893 19.78833764 24.46936562
H 20.72739849 19.45167838 22.63634399
H 22.06299887 20.32196380 22.83948133
H 16.98253773 19.75151183 19.98691776
O 16.58372377 18.86178160 19.88780807
O 18.16438947 20.60352132 17.10153017
O 21.13861881 17.25980362 20.88433356
O 17.85214077 22.58220257 23.08935705
O 18.92168297 16.48589507 19.80458034
O 20.33044154 23.11565782 22.30468492
O 17.29543672 17.82564681 22.60595192
O 17.83869286 17.89806796 17.43812373
O 20.34905462 21.19018744 18.66836277
O 20.02541035 18.28052479 23.19693478
O 15.87451026 20.01700531 23.40036308
O 20.81565679 23.52598959 19.71938524
O 18.85211359 20.83815761 20.90406802
O 22.39048557 19.61721883 19.80510368
O 18.08857114 20.55453042 24.66722302
O 21.24806416 20.26587606 22.32901689
48
i = 0, time = 0.0, E = 0.0;
H 17.35715160 19.38056959 20.95760186
H 20.32387114 17.98157615 17.05855851
H 19.71745844 19.30004387 16.99744770
H 21.04578978 15.28893253 20.27303569
H 19.74266677 15.93347339 20.81575262
H 19.95966320 25.11683252 23.59907246
H 19.75689150 24.23513460 22.29782474
H 17.79090915 17.03546599 20.32044316
H 17.25359937 15.59606340 20.07496033
H 21.08139441 23.69246615 20.34309766
H 21.48371248 23.10585540 21.88583639
H 16.71488648 18.20724988 22.92958118
H 17.49981890 17.01588482 22.19115453
H 15.49718535 19.17565974 19.54649728
H 14.84102982 20.32863926 18.62301767
H 19.73061130 20.64302125 19.80848342
H 20.53691339 19.82079944 18.72597431
H 20.33693392 17.75806395 22.50555964
H 19.24803052 18.43726882 23.41178947
H 15.72803514 20.77212944 22.49769798
H 15.08623087 19.77051051 21.48602099
H 20.56221913 22.08554390 18.45081731
H 20.77435120 23.41060543 17.68454032
H 19.01946007 21.28472839 22.12796328
H 19.73728307 20.00230935 21.97748081
H 21.33024355 17.36506732 19.48773386
H 22.44035437 18.56115543 19.37256467
H 19.02592388 22.99335572 23.57565674
H 17.81301041 22.09342870 24.03772894
H 20.21030363 21.38321715 24.10055046
H 20.97050167 20.11507649 23.81143722
H 18.04268529 19.37002834 19.69321599
O 17.38289310 18.83682003 20.16494734
O 20.02836684 18.60370977 16.37100601
O 20.70239803 16.16239371 20.67503398
O 19.28760144 24.55402793 23.17036977
O 18.01838533 16.08219187 20.40831638
O 21.04237368 23.84901052 21.34479397
O 17.32347071 17.40938434 23.10002401
O 14.76107863 19.81674036 19.47760370
O 19.77130729 20.39381559 18.81152692
O 20.19164028 18.51112161 23.08144597
O 15.74978200 19.80541512 22.24409536
O 21.05584905 23.01764097 18.54364209
O 19.25096437 20.59318706 21.39658251
O 21.56036970 18.29615696 19.10639869
O 18.68954179 22.03324958 23.69180743
O 21.17503681 20.99602495 24.18457317
48
i = 0, time = 0.0, E = 0.0;
H 17.98805984 20.55157507 20.52382423
H 20.16750248 21.77757176 17.42365838
H 20.25518789 21.82498242 15.91344754
H 18.95408246 15.67104842 19.25570236
H 18.93403350 16.98994778 18.54094249
H 19.91828255 24.30749900 22.57698433
H 19.72325962 22.84935193 23.06588237
H 17.19460614 18.93549033 19.23299857
H 16.95251098 18.86308565 17.75425251
H 21.54519644 21.38703341 22.88734576
H 20.82421859 20.11906703 23.45358469
H 15.98933788 18.39156928 22.65524751
H 16.00908898 18.78692283 21.16926169
H 16.40913455 21.53176704 17.09139463
H 17.90497733 21.41773770 17.06923819
H 20.85696399 20.65116493 19.76776807
H 21.99527910 20.70991618 18.82040538
H 19.06021612 17.02132883 21.05367001
H 17.62740039 17.51740516 21.71761492
H 17.04107853 19.72204818 24.58440540
H 15.68549741 20.08376210 24.06197257
H 23.53032994 22.57793752 21.57049504
H 22.56748959 21.73346424 20.62647407
H 19.83231716 20.32878792 21.52027614
H 19.12903698 19.00813084 21.04962530
H 21.56211806 18.58821484 19.55685028
H 22.16459518 17.73486608 18.57636662
H 18.82279372 21.48570528 24.81170798
H 17.95115913 22.29048037 23.79122415
H 19.46080411 18.11709885 23.30153308
H 20.47224907 17.60504975 24.20191693
H 16.87131406 20.91219860 19.58263906
O 16.99425146 20.45359069 20.38720785
O 19.61524595 21.70375638 16.67371503
O 19.40609377 16.56945358 19.29216886
O 19.33102477 23.74994949 23.15176194
O 17.32608448 18.31825993 18.48769765
O 20.74750143 21.10539494 23.33316417
O 15.90742261 17.98859478 21.75110618
O 17.11624179 21.06854263 17.53974122
O 21.48471515 21.30682037 19.34238424
O 18.58402243 17.24643845 21.93972365
O 16.26208924 19.28574809 24.13098901
O 22.92825509 21.81845016 21.55637223
O 19.62517990 19.76691827 20.74375168
O 22.47271056 18.41367981 19.23680349
O 17.92032429 21.57359102 24.45133781
O 20.09720218 18.45107374 23.97226024
48
i = 0, time = 0.0, E = 0.0;
H 13.95506226 20.23198713 21.86915966
H 19.54991159 20.44215562 18.02086758
H 19.33219016 20.23743601 16.41183000
H 20.97145884 15.50874520 20.16833099
H 20.13361597 16.50794330 19.34461058
H 20.31271880 25.23784236 22.01762467
H 20.35810159 23.89430261 21.29322662
H 18.66175990 18.22495730 19.62447506
H 18.87488494 18.27199527 18.07913747
H 22.16586838 22.00362045 20.87359591
H 21.29730141 21.85415574 22.08150378
H 17.55841976 17.57770864 23.86791927
H 16.67369879 17.40492838 22.70096502
H 16.11785631 18.95049181 20.14750238
H 15.75015675 18.17522945 18.75835103
H 18.63839713 21.05581779 20.05299629
H 20.08340019 21.73597680 19.89871355
H 20.27870408 17.88531069 21.10121719
H 18.96181435 17.73366292 21.90353344
H 16.45342600 20.35130936 24.81375328
H 15.77767707 20.05438461 23.41958150
H 24.11649976 21.06709908 19.87065275
H 23.02941140 19.96407613 20.10678690
H 17.81470058 20.96920303 21.96050714
H 18.24245867 19.50202319 21.45842896
H 22.05954953 17.75261986 19.24473574
H 21.46440262 18.95175337 18.43096462
H 17.55900526 22.70442470 23.30538448
H 18.86713869 23.14518736 22.59528897
H 20.13303974 20.58852219 23.08659370
H 21.21795610 19.76579242 22.73768873
H 15.30903722 20.66912496 21.57238983
O 14.65108647 20.77685678 22.30180446
O 19.69447711 19.77423685 17.21479263
O 21.06754881 16.32447945 19.68235249
O 19.73845906 24.56762626 21.64139675
O 18.74506537 17.68990424 18.86111502
O 21.35548783 22.47021012 21.28736044
O 17.52770649 17.07224795 23.04126930
O 15.40409497 18.47096977 19.65087428
O 19.40680843 21.20595911 19.37069895
O 19.51058651 18.43367528 21.42313131
O 16.32030644 19.60721001 24.12446769
O 23.42681239 20.76516405 20.55711390
O 17.47672545 20.16917772 21.44254482
O 22.17817864 18.70129458 18.99269210
O 18.37931998 22.32982524 22.93028059
O 21.04157922 20.52899171 23.24087110
48
i = 0, time = 0.0, E = 0.0;
H 17.85537099 19.20752415 18.17716736
H 20.46145007 19.18748348 17.78738178
H 20.19850857 18.48521884 16.37470120
H 21.96902619 15.72775862 20.30054903
H 20.82228204 16.64804671 19.97905719
H 18.59965442 25.21544174 24.15960795
H 18.89114942 24.11859815 23.06807721
H 18.20447694 16.26008913 19.34972805
H 19.19844224 17.30502415 18.67338764
H 20.46210264 23.14075127 21.22891255
H 20.40021787 22.39531012 22.55746688
H 15.96639957 18.99825218 22.54876280
H 16.22884564 17.62234067 21.86977884
H 15.45997349 16.91198929 19.46053605
H 16.52315240 18.00238501 19.70385825
H 20.10037030 20.77203776 19.19574672
H 21.48865808 20.02027977 19.14314108
H 19.18892580 18.05612282 21.24327400
H 18.01894488 18.27360434 22.37726182
H 16.53639516 21.10393301 22.98479041
H 16.69997926 20.76013375 21.41966365
H 21.83095210 23.84979370 19.29059036
H 21.37091211 22.37331036 19.00248951
H 18.95713390 21.69466917 21.22890483
H 18.89140767 20.06844313 21.31945757
H 22.61481400 18.15160020 19.98087832
H 22.30143869 19.39062285 20.86312923
H 17.90668296 22.60470430 24.41246764
H 17.40863252 21.33301737 25.25582772
H 19.34967898 20.83115865 23.89856948
H 20.19015511 19.68526944 23.10534213
H 17.45576006 20.14441273 19.32065748
O 17.12211869 19.35087135 18.83565469
O 19.83458662 18.52620077 17.28172231
O 21.68271509 16.65282523 20.44290447
O 18.25456585 24.36963727 23.80805403
O 19.15360434 16.59128825 19.41375789
O 20.01171875 23.16510722 22.07058299
O 16.48227424 18.13871543 22.70727692
O 16.15942599 17.12888473 20.07574358
O 20.81528705 20.55227983 18.58253018
O 18.98538743 18.51325360 22.03915248
O 16.11484455 20.74443322 22.18017435
O 21.59055554 22.98369496 19.77096421
O 18.94005828 20.84080491 20.68609213
O 22.69554443 19.19983164 19.98593826
O 17.84936747 21.56241145 24.42993204
O 20.24275642 20.57265862 23.54913196
48
i = 0, time = 0.0, E = 0.0;
H 16.15896849 18.86243162 20.83637403
H 19.64559424 20.61215526 17.35632404
H 19.39307486 20.11732882 15.87950873
H 19.40962364 15.99474396 19.39595287
H 19.18950886 17.43219997 18.91500677
H 19.52948372 23.55595674 23.55294682
H 18.33605791 24.04005958 24.37053011
H 17.33706213 18.46882746 18.63624224
H 18.38108194 18.66367622 17.49450488
H 21.00632255 22.53087548 22.34129493
H 20.74466154 21.63879317 23.52736974
H 16.69630554 18.27052402 23.74985345
H 16.44433761 16.78053208 23.21565049
H 16.24012527 20.37225577 17.82860446
H 17.11163916 21.24645141 16.78805181
H 20.16177497 20.99917362 19.34470570
H 21.17306287 20.19696581 18.76449063
H 19.57957613 17.28964856 21.12110995
H 18.36919171 17.69259657 21.93695709
H 15.98721054 19.76519626 25.20328788
H 17.63100033 19.98183197 24.97221090
H 21.84445396 22.23588358 19.66880749
H 21.85964475 23.77694654 19.81846591
H 19.48428525 21.17268640 21.36101098
H 18.94770243 19.85644459 20.71479741
H 21.45663040 17.90233726 19.36779255
H 22.94755827 18.40722966 19.28178196
H 19.84318270 19.42187054 24.91401188
H 20.18550621 20.53610961 25.92308446
H 21.34771524 17.73044461 23.99482414
H 20.38989453 18.41547350 22.98878614
H 17.08816647 20.00961753 20.37751009
O 16.63778208 19.17970835 19.99940755
O 18.99869454 20.14241389 16.73905373
O 19.81305664 16.83796776 19.51196997
O 19.15779969 24.34598211 24.04212207
O 17.97612251 17.94198584 18.06839628
O 20.24244394 22.08808912 22.83266745
O 16.55250938 17.70141020 22.94779690
O 16.19142479 21.01133963 17.08006972
O 20.75640533 21.10052810 18.57506391
O 19.30911163 18.00220546 21.75357753
O 16.81398198 19.42412452 24.88977225
O 21.85970995 22.96216766 20.38369003
O 18.96495639 20.84172525 20.56975801
O 22.03566872 18.66597200 19.14298414
O 19.55129640 20.32690065 25.22399496
O 20.92462137 18.59520480 23.82454758
48
i = 0, time = 0.0, E = 0.0;
H 17.33212807 21.46833936 20.36910146
H 20.31518278 21.55614806 17.01840403
H 20.86407757 20.30129427 16.74888066
H 17.98430364 18.38294759 20.54991906
H 18.67078746 19.55378854 19.95843670
H 19.13389696 20.02361855 25.35173119
H 20.49510648 20.46705009 26.14520445
H 19.03929071 18.83451142 16.87245658
H 18.33836924 18.36119060 18.06578533
H 22.18973344 21.20508314 18.23634146
H 21.93936918 22.07444529 19.60100068
H 16.10919116 18.75693067 22.43011782
H 16.52086259 19.94187674 21.40096393
H 16.55767586 18.90367156 17.52965270
H 15.35639836 20.08157961 17.35424091
H 24.10068394 19.49780746 17.59160705
H 22.85579229 19.01206793 18.35584457
H 17.65509489 19.13740478 23.40937504
H 18.43958471 18.01649688 24.32771375
H 16.53275574 19.48374239 25.15000688
H 14.99046251 19.53385920 25.16149689
H 22.25501523 21.37912581 21.66167461
H 22.41548542 22.95519788 21.77630546
H 19.44764347 20.96398979 21.09626286
H 19.89751987 21.47815334 19.74387878
H 21.86387183 17.43368708 20.38782060
H 20.76490961 18.19190471 19.81933920
H 16.79929321 19.45455493 27.92445330
H 18.19439519 19.99856004 27.24550133
H 20.15925099 19.40914179 22.71086030
H 21.11182239 19.28331641 21.48109879
H 16.24001380 20.65605567 19.57596980
O 16.33755611 21.19503514 20.39987672
O 20.06132601 20.81818438 16.49404285
O 18.57487725 18.58269097 19.82368480
O 19.48599664 20.57962207 26.07071714
O 18.30421773 18.20954986 17.11713599
O 21.56416428 21.84141965 18.66801643
O 16.87968736 19.13937915 21.84240013
O 15.70754378 19.34416807 17.89151639
O 23.12712428 19.59759333 17.61303919
O 18.44278112 18.97913513 24.03864702
O 15.74614532 19.51797707 24.58787624
O 22.64058971 22.16625926 21.23051702
O 19.10272724 21.39332381 20.31092073
O 21.70825160 18.36319419 20.18317570
O 17.40237004 19.33162719 27.14150606
O 20.65930169 19.99388165 22.08298959
48
i = 0, time = 0.0, E = 0.0;
H 15.91399465 19.28652809 18.85114304
H 21.27705937 17.63162136 16.82091945
H 21.50582617 18.64710904 15.65882975
H 18.48342982 17.90219957 19.71928871
H 17.82722080 16.52065548 19.98565466
H 19.48463754 24.80770030 24.66699661
H 19.18185722 23.42178588 24.08946341
H 18.39429167 20.00303632 18.13520736
H 19.27599599 19.40110989 17.02166640
H 20.10065936 22.36051687 21.71434449
H 20.37609509 21.75221422 23.09308629
H 16.25377285 20.35147596 24.07739823
H 17.13773654 21.31580250 23.11335536
H 17.25723314 18.57894587 17.00784035
H 16.96526452 17.28906601 17.86790184
H 22.93865452 19.39819376 19.18174205
H 21.89238033 19.36076560 18.13136080
H 18.63044880 17.97806196 22.66761722
H 17.67708406 19.31992313 22.61843982
H 17.55230647 20.69218130 25.88582236
H 16.04379798 20.93428442 26.23201136
H 21.95135290 21.86783308 19.60767244
H 22.26158658 23.40230418 20.19454782
H 20.23370755 19.79360423 19.71106864
H 19.11022415 19.56971903 20.77332325
H 20.64182905 15.62184073 18.00289806
H 21.03080413 15.70355509 16.44482119
H 19.24312226 22.19419757 26.05576000
H 19.71027933 20.87135695 25.21991150
H 21.38301576 19.65050504 23.71214025
H 19.78375738 19.66795782 23.38354102
H 16.57826838 19.98212341 20.15484160
O 15.69911446 19.82896616 19.74983373
O 21.29204356 18.62930558 16.59789375
O 18.63962425 16.96535118 19.55659525
O 19.20454696 23.92846883 24.97635005
O 18.33507884 19.72017481 17.15880927
O 20.18176067 22.61955974 22.70868422
O 16.56293735 20.55678283 23.09133586
O 16.45262975 17.95934120 17.40861317
O 22.06579547 19.90783697 18.95939834
O 18.58273987 18.91330865 22.32040916
O 16.64716204 20.25215524 25.89132548
O 21.80438062 22.51855461 20.33784031
O 19.27213466 19.85492983 19.87268603
O 21.22253466 16.03050209 17.33524944
O 19.13168743 21.21681441 25.99999807
O 20.55423686 20.18371093 23.86186290
48
i = 0, time = 0.0, E = 0.0;
H 16.78848874 18.50217336 18.53107306
H 19.04801271 20.71202243 17.47607744
H 19.25562028 20.46629381 15.97958107
H 21.53449996 16.63632349 19.99927971
H 20.42174365 17.13231893 18.92300678
H 19.03646514 23.87376626 25.06089326
H 18.68324938 23.04071850 23.88742645
H 18.69069289 17.49552373 18.09940763
H 19.51029961 18.37732444 17.09332156
H 20.35892472 21.62847616 23.00554754
H 20.41791231 22.90542808 22.09347202
H 17.00098828 17.88589244 23.23144126
H 16.62603244 16.42437845 22.69238851
H 17.31935203 19.87832987 16.89319263
H 15.76279999 19.59401306 16.84355017
H 19.03151312 21.33531459 19.72957518
H 20.41652236 20.97355966 19.00398968
H 19.96404584 17.83706146 21.43416301
H 18.85515375 17.74016929 22.52534579
H 17.82104410 19.53401077 24.56931810
H 16.51415258 20.31592062 24.14031485
H 20.67796842 24.44834819 19.95686709
H 20.69685940 22.86273003 19.81698837
H 17.47193215 20.59110335 21.27772071
H 18.77055497 19.86707140 21.33261357
H 22.23023251 19.65096493 18.13894200
H 21.68363736 19.04712485 19.50791165
H 18.74629797 21.49152503 25.44909015
H 19.92372389 20.39603162 25.48451971
H 21.79028369 19.25160758 24.31185602
H 20.48546403 19.18870293 23.54429139
H 17.64698856 18.60687940 19.78715966
O 17.37828051 17.94310590 19.11817594
O 18.93962974 19.99023276 16.76324672
O 20.86816516 17.32569785 19.83594932
O 18.27099413 23.32160259 24.73712932
O 19.55320676 17.48326854 17.60517738
O 19.80540554 22.31234332 22.57847670
O 17.36440023 17.04408848 22.90222363
O 16.47252835 19.90080883 17.45571207
O 19.65170917 21.62724456 19.00541024
O 19.54944153 18.34225398 22.19134150
O 16.99721856 19.49683140 23.97901380
O 21.07178952 23.62765439 20.31621321
O 18.13516001 20.17726777 20.69182398
O 21.74156883 19.89199547 18.93818563
O 18.93607090 20.58407328 25.75268433
O 21.09657298 19.86526965 23.95487936
48
i = 0, time = 0.0, E = 0.0;
H 16.42638608 19.47757035 20.90664773
H 19.74559342 19.98404538 16.77534474
H 20.98746248 19.19782027 17.18324436
H 19.97562299 14.76583190 19.38965089
H 18.98503184 16.03048746 19.16000693
H 17.64416287 24.43206542 22.61852577
H 18.70341626 23.71116813 23.51079961
H 17.16353166 17.26530821 19.76255897
H 18.12698370 18.04805154 18.70772692
H 20.49936494 23.01847030 22.00412514
H 20.41112840 21.83927545 23.19932672
H 16.98776394 18.40095165 23.21943369
H 16.47270360 17.12742756 22.52245755
H 17.03568539 19.67777994 18.72375429
H 17.03628712 19.49165876 17.12220432
H 23.23514647 20.05499019 19.16562219
H 21.79750145 19.58783675 19.42141987
H 20.17158460 17.23651474 21.15753310
H 19.00058805 17.78665213 22.00784180
H 16.60633258 20.33931797 24.65644013
H 16.70616510 19.09491190 25.42203234
H 20.01923758 22.94776781 20.21005413
H 21.50028755 22.65752472 20.18012275
H 19.02033170 21.19020396 21.59659953
H 19.61262845 19.73470055 21.08567701
H 22.27683368 17.23635530 18.28798994
H 20.68638009 17.17037624 18.68789903
H 17.01693092 22.93106464 24.29291264
H 15.65226438 22.98236468 25.05199261
H 20.97837432 19.61600851 23.16489031
H 22.13402622 20.31611510 22.40539731
H 17.69001222 20.30779138 20.34149174
O 16.66820801 20.11154147 20.20394849
O 20.67617609 19.77945374 16.44997655
O 19.98678624 15.75060273 19.40140628
O 17.92705598 24.36460815 23.58080583
O 17.86680732 17.14225155 19.12937422
O 19.85678784 22.56080973 22.72025677
O 17.01521368 17.89201781 22.34089997
O 17.62194885 19.57387973 17.86732610
O 22.45701608 20.16788296 19.82193447
O 19.97589519 17.83215200 21.91224099
O 16.62357174 19.40644079 24.52419859
O 20.89403554 23.39511983 20.44932749
O 19.09419150 20.57267142 20.81513524
O 21.43061626 17.82594850 18.42658134
O 16.40524117 22.35685420 24.85879582
O 21.51377126 20.45558013 23.18977858
48
i = 0, time = 0.0, E = 0.0;
H 15.96765504 18.70646437 20.53348938
H 20.28540065 18.97188111 17.55218736
H 18.76340849 19.21222162 16.86111900
H 20.73359892 15.04321132 20.74898454
H 20.01102763 16.24806843 19.95038864
H 16.62140601 25.24503321 26.75704694
H 17.60488524 26.01461617 27.64894165
H 17.84343355 17.00254376 19.47703119
H 19.00140792 17.37245639 18.45137837
H 20.90231001 22.46321557 20.04664279
H 20.60571217 21.80587045 21.43341590
H 16.79473858 20.40651207 23.11318151
H 16.05332366 19.42048176 23.96749551
H 16.22066666 18.21101623 18.03558611
H 16.87863535 17.82156788 16.72543166
H 20.47127595 19.37317674 19.45354547
H 21.96312506 18.72780935 19.50002303
H 19.13325542 17.59580536 23.02855941
H 18.06404884 18.64207273 23.31161718
H 17.61648535 21.84532940 24.57514272
H 17.69671716 22.68547473 23.08456984
H 21.78731321 20.97930861 18.88387168
H 21.49316344 22.27370678 17.99145394
H 19.04769776 20.59960157 20.84393063
H 19.19067710 19.47968045 21.87829251
H 23.69292148 17.68996679 19.55661593
H 22.48248130 16.73697227 19.90186640
H 18.73452476 24.40341388 22.31887798
H 18.95155044 23.18185969 21.51398524
H 21.24041809 21.22563519 24.01223411
H 20.41183232 20.11153384 23.23601552
H 17.38207093 19.25785136 20.34936504
O 16.67784716 18.71008857 19.86489849
O 19.61679211 18.66127979 16.90090149
O 20.75664658 16.01872705 20.57184856
O 17.45456890 25.12994665 27.29295267
O 18.64229696 16.66568058 19.03630782
O 20.16219406 22.24557541 20.71198011
O 16.51731633 19.42911502 23.08584114
O 15.98127976 17.95813594 17.12168107
O 21.35039897 19.39015918 19.00552958
O 19.10193096 18.49064101 23.40674058
O 17.15768038 22.07859283 23.65963580
O 21.88556308 22.00063942 18.81021083
O 18.90973256 19.63348707 20.91617337
O 22.84961550 17.60379088 19.99852229
O 18.15799917 23.75365669 21.85477984
O 20.58093777 21.09723368 23.27753662
48
i = 0, time = 0.0, E = 0.0;
H 16.04593336 18.07713191 19.09410118
H 19.18961007 19.95826278 18.38719146
H 19.84194072 19.94284718 17.03596619
H 21.19885558 16.82443578 20.12852812
H 20.04511879 17.57813810 19.38615435
H 18.18360837 23.91483979 21.80365743
H 19.37120253 22.94763876 22.23936872
H 18.04310820 16.89418834 18.55943189
H 19.24941570 17.84766525 18.00396802
H 21.77289166 23.48815837 21.89382639
H 21.50507159 22.13291483 22.65187833
H 16.57234222 17.33520139 23.44612909
H 16.32978408 16.60971301 22.08212950
H 16.54108453 20.28787940 17.93328777
H 15.68390408 19.24152795 17.21045433
H 19.45134992 22.43635929 19.46166332
H 20.58049603 21.42391098 19.46470729
H 19.63523898 18.29190284 21.63990298
H 18.27676788 17.97336836 22.28719868
H 16.77634246 19.28022885 24.84739424
H 15.72569080 18.35851087 25.59115685
H 23.15264666 23.42488201 19.68803237
H 21.65527761 23.24635876 19.76728286
H 18.48984507 20.06811381 21.10110532
H 17.31661172 20.91244711 20.69081182
H 21.77270649 19.29877075 20.04926868
H 22.07057443 20.08093481 21.37880126
H 18.49513738 20.16049156 23.82062499
H 17.66101741 21.55529363 23.80607560
H 22.54234495 19.45331689 23.64931091
H 21.03767145 19.57529486 23.47703010
H 17.34435227 18.63439853 19.56128955
O 16.87228357 17.82650632 19.54434984
O 19.32598208 19.37155462 17.62518372
O 20.87456476 17.71546094 19.96638353
O 18.40750933 23.15560868 22.40574922
O 19.04593046 16.90249739 18.33308102
O 21.18627429 23.03251821 22.48500498
O 16.95873208 16.69616775 22.79864165
O 15.79607116 19.67548243 18.06039061
O 20.26212709 22.28202636 18.96645154
O 18.99845856 18.69695736 22.30870433
O 16.20304284 18.47077858 24.77029979
O 22.43608182 23.61593813 20.23515085
O 18.08032812 20.53231060 20.28710987
O 21.73389088 20.18053246 20.44744314
O 17.86955633 20.76505079 24.37641384
O 21.88359629 20.04181665 23.19528759
48
i = 0, time = 0.0, E = 0.0;
H 18.58203400 22.07951702 18.82275282
H 20.24312478 21.04577058 17.88776381
H 20.57395786 22.29063164 17.14441045
H 17.95099516 15.47821740 18.11657245
H 18.98214110 16.57015758 18.17768940
H 21.55628518 22.91116500 24.40077607
H 22.75227242 23.48114870 23.69466614
H 18.83585186 18.33964761 16.24001188
H 18.44604369 19.31683468 17.32341551
H 20.38287751 22.11536277 22.59272771
H 19.94972723 21.35034702 23.80923730
H 17.04754763 16.14718237 23.81459555
H 16.99401201 17.72957476 23.63634075
H 16.67563411 21.29030585 18.03429571
H 16.83462194 20.67744539 16.48208153
H 19.73341279 20.12415570 20.10261559
H 21.26776737 19.54226859 19.66704168
H 18.57662331 16.47938136 20.51531668
H 18.23735480 16.96893157 21.92634698
H 16.76210938 20.07797868 23.90241315
H 15.46365856 19.32221090 24.30076872
H 21.32358816 21.66142521 20.70169893
H 22.70225594 22.15377906 21.21297286
H 19.06275240 19.98921017 22.20928173
H 18.52026647 19.00007738 21.09130989
H 20.45601246 17.42259888 20.17653854
H 20.55418161 17.93972614 18.61703727
H 17.05770054 21.87596456 22.68206777
H 18.15723713 21.89954053 23.52150390
H 20.54532206 19.21758002 24.42485370
H 19.11873852 19.73995007 24.85871126
H 17.98566589 21.40553773 20.01249156
O 17.71369736 21.98174548 19.27476233
O 19.81850060 21.65014851 17.27993433
O 18.76246392 15.73769571 18.57684448
O 22.41440285 23.29579677 24.59784459
O 19.09413439 18.60008568 17.08542212
O 19.98476891 22.30015888 23.44661535
O 17.02456431 16.84968902 23.12569685
O 16.59561960 20.49958362 17.40624868
O 20.61578238 20.31295417 19.57203093
O 18.86302691 17.16514814 21.18346348
O 16.48911322 19.20012927 24.32134983
O 21.74289832 22.33520579 21.32994391
O 18.70104718 19.93785463 21.30142150
O 21.04361593 17.68761827 19.45074728
O 17.25848720 21.68148025 23.62335518
O 19.82655611 19.82744406 24.23232243
48
i = 0, time = 0.0, E = 0.0;
H 15.86447006 20.69796925 20.27845472
H 20.31083904 20.44731145 17.16137653
H 19.80337281 20.57012168 15.75644051
H 19.52327893 15.81032768 18.57188751
H 19.25244753 17.03787711 19.40096265
H 18.51190148 24.99755776 23.00284002
H 17.68040530 24.38789868 21.88444152
H 18.65644971 19.10585895 19.71388803
H 18.30498093 18.82671995 18.26072697
H 20.78862491 21.75669517 22.48913078
H 20.53804119 20.59640089 23.40666688
H 17.49691981 18.25636555 22.67697993
H 17.20162151 17.08903922 23.49201155
H 16.10671622 18.85424746 19.04449967
H 15.23492859 19.72091102 18.00296823
H 20.64164845 20.60111419 19.32154171
H 21.84716696 19.68299381 18.76911500
H 20.60800542 16.75117293 21.54926313
H 19.28350133 17.17052595 22.16661299
H 17.46794018 20.85209725 23.65720662
H 16.22325983 20.11868643 23.80795309
H 23.28062893 21.51317069 21.03719772
H 22.17954224 21.66861372 19.93762479
H 19.32391038 20.73038392 21.41295571
H 18.10918341 20.58960273 20.60668271
H 21.22028062 17.27027363 18.55447378
H 22.70983466 17.45086542 18.69425831
H 17.41226149 23.39882754 24.08087033
H 18.19792920 22.65477111 25.24915771
H 22.47096847 18.73089321 23.64695225
H 21.02389290 18.39951907 23.21133453
H 16.53218310 20.62643478 21.80882569
O 16.47725428 21.15953996 20.91299777
O 19.45260164 20.29013652 16.69352192
O 19.98212296 16.38626962 19.22399291
O 17.61167625 24.62520443 22.81458064
O 18.15246838 18.47474812 19.15818181
O 20.01749020 21.35874363 23.02538215
O 17.48023242 17.29421990 22.61611884
O 15.28932677 19.37838047 18.95636526
O 21.55310936 20.63176111 18.86917991
O 20.28214472 17.32099724 22.20829293
O 17.03920380 20.03736046 23.31314758
O 22.47406767 22.05507919 20.83734201
O 19.09244817 20.42013860 20.52683550
O 21.95084062 17.88794930 18.21944085
O 17.38113118 22.59065142 24.72345115
O 21.55660323 19.10609326 23.67420518
48
i = 0, time = 0.0, E = 0.0;
H 17.64376953 19.65528763 18.47149334
H 21.29823724 21.26061284 15.40130120
H 20.52700159 19.85822751 15.25285289
H 20.12238630 17.16160432 21.36530828
H 18.74493308 16.65456298 21.58233722
H 18.76516672 23.12935473 23.24336841
H 18.90711880 22.99137483 24.69925798
H 18.20022297 16.44774921 18.75652815
H 18.15100605 18.03761024 18.97713087
H 21.06939365 22.72513176 21.41061630
H 20.60402046 22.08482347 22.74277787
H 16.93482943 17.37879976 22.23698583
H 17.19724777 17.91149013 20.77030000
H 17.59574368 21.41404216 17.41979824
H 18.77592406 20.97272049 16.53861560
H 20.14512028 21.33045701 18.82301148
H 20.79143874 20.65446970 17.62739504
H 19.64159494 17.81597737 23.17878940
H 18.63859766 18.72361618 23.89359355
H 16.53543055 19.28543607 24.07271197
H 16.73321340 17.87458880 24.86417568
H 23.32999773 22.37930445 20.71384136
H 22.25055158 21.67974689 19.72114328
H 19.01802764 21.33642721 21.68294604
H 19.24963104 19.81942904 21.65732619
H 20.01789752 17.92638710 19.35145625
H 20.62304602 19.28944379 19.88300558
H 16.79115620 21.74906207 23.80336645
H 16.73991478 20.67424943 22.63804037
H 21.63172225 21.00297630 24.35294972
H 20.35012765 20.16803250 24.09417208
H 17.81338921 19.95966719 19.96627517
O 17.27495159 19.39033680 19.34069927
O 20.51516741 20.70716432 15.76294719
O 19.67199817 16.68259514 22.04766403
O 18.19806600 22.95017440 24.04411963
O 18.54152231 17.25360405 18.44771270
O 20.28274489 22.65443153 22.03662877
O 17.21996319 17.08350435 21.33386288
O 18.15712428 20.65644428 17.23679009
O 21.00251356 20.89673615 18.55309619
O 19.60809633 18.72885773 23.65778432
O 16.83255163 18.28854940 23.97593308
O 22.49670309 22.49505376 20.22744710
O 18.60850083 20.49348777 21.40012719
O 20.35933750 18.39199203 20.19384133
O 16.26006764 21.02900238 23.41591103
O 20.69847368 21.12712017 24.19061048
48
i = 0, time = 0.0, E = 0.0;
H 16.28400731 20.29087285 21.18824779
H 20.71810847 20.72104766 17.41960661
H 19.67940493 20.98726659 18.54107450
H 18.85712948 16.31581452 19.43769076
H 18.37754015 17.81718638 18.76937447
H 19.97836387 23.66694751 25.20075547
H 19.66426823 23.21272590 23.73764101
H 16.94992251 19.37524106 18.55210577
H 18.29784305 19.68857643 17.89098673
H 21.19483894 22.72931038 21.51698389
H 20.99926844 21.61497087 22.63653229
H 16.66003917 18.12549513 23.05821783
H 16.54205057 16.68977328 22.31004709
H 15.29524332 17.15260965 19.78287495
H 16.39542198 18.26844160 20.19520068
H 22.17546291 19.82041925 18.82914705
H 23.25559440 20.44047281 17.80996103
H 19.24510975 17.61689702 20.81203092
H 18.52003599 17.66543735 22.16179570
H 17.16711580 20.46528848 23.30740935
H 15.59933865 20.76966669 23.07241748
H 22.21398961 22.05313373 19.31215204
H 22.93542035 23.42160248 19.60791956
H 19.70686535 21.33795705 21.04948554
H 19.26777013 19.89226434 20.73762267
H 20.92007238 18.04583730 19.16594857
H 21.42275367 17.90781179 20.51843304
H 18.69220892 21.68243721 24.65780316
H 19.14530926 20.40452528 23.99665420
H 21.09133625 19.27694402 23.96441441
H 20.33237008 19.00743924 22.68895235
H 16.79941347 20.77777005 19.89377960
O 16.06840559 20.26092883 20.20955849
O 19.75771739 20.73075127 17.53913060
O 19.11005463 17.24618012 19.26215936
O 19.22836006 23.42495669 24.65604423
O 17.58491149 18.96752262 17.93992483
O 20.53540702 22.42706572 22.25313348
O 17.10630983 17.19399019 22.94962723
O 16.15564308 17.31482115 20.23713695
O 22.42526487 20.62232600 18.29125866
O 19.26730271 18.18659793 21.67489202
O 16.33266688 20.12321590 22.85408998
O 22.24776148 22.81494840 19.94967735
O 19.27721435 20.81555906 20.34862155
O 21.64312269 18.32173259 19.70972799
O 18.39908919 20.74548557 24.55644912
O 20.61716975 19.76594072 23.26801823
48
i = 0, time = 0.0, E = 0.0;
H 16.82126884 19.27599206 18.56606932
H 19.69362725 19.24959107 16.65416946
H 19.35248343 19.23030514 15.19281454
H 19.76970359 15.33322630 20.99897428
H 19.67572261 16.31459451 19.82425557
H 17.60221634 25.52643811 24.80834836
H 19.00955522 24.93121298 24.24875332