39
i = 0, time = 0.0, E = 0.0;
H 19.40101146 19.18628579 18.35419631
H 19.49788852 22.82448034 20.83114094
H 19.59801709 21.33096491 20.39869885
H 20.76994362 14.79524703 22.11361598
H 20.08478768 15.98283371 21.28852731
H 20.13429787 19.96129877 26.30019666
H 19.58014720 20.96219270 25.21959998
H 19.57377682 17.27835173 19.26831228
H 19.51361224 15.79813146 19.16486112
H 19.98253338 22.25140975 23.36634018
H 18.47935565 21.85870058 23.40927070
H 18.00002567 17.08215143 24.55280693
H 17.73975634 18.62933773 24.62485155
H 17.51111149 22.18996357 19.81399999
H 16.32056930 23.11026330 19.62233855
H 20.93070492 17.81652952 23.15800094
H 20.62659089 19.01180693 24.36539394
H 19.54993970 16.07706528 26.10197117
H 19.84874768 15.52427113 24.60606477
H 17.61575488 18.06610085 22.59597637
H 18.12513453 17.60769221 21.16490342
H 18.92551379 19.28812416 21.48243709
H 20.38872469 19.44814579 22.03604331
H 17.12355344 20.74562075 22.04750104
H 16.66769331 22.13858188 21.63370600
H 20.21879527 19.24508228 19.71394648
O 20.16698233 18.74530498 18.82104849
O 19.37234603 22.30032878 20.03904085
O 20.59866909 15.79318865 22.12058398
O 19.58979496 19.94328690 25.54904993
O 19.26414462 16.49778288 19.80845809
O 19.26249822 22.18994920 24.05042893
O 17.38600007 17.76924552 24.33331499
O 16.52226639 22.22685137 19.91904930
O 21.07735824 18.77540123 23.42624583
O 19.37602797 16.19479028 25.13063931
O 17.67732200 18.36988300 21.66810849
O 19.87918598 19.75042428 21.15600855
O 16.88917673 21.59319906 22.46790592
39
i = 0, time = 0.0, E = 0.0;
H 17.14953189 18.01784195 19.77127323
H 19.65375756 22.33343561 20.26092516
H 20.09416576 23.14578512 19.01908301
H 21.87765203 16.81341557 23.04568749
H 20.70177900 17.35986618 22.27579587
H 19.68351543 18.92810210 24.73710236
H 19.35103097 20.21748435 24.02023196
H 19.91541955 17.58728106 20.02493447
H 19.71936958 18.72845857 21.16628602
H 19.71984585 21.25380268 26.12135119
H 18.89402699 22.13398422 26.86139321
H 16.13045868 16.61995097 24.08542489
H 17.48770870 16.31318715 23.67400217
H 18.40495865 21.37698510 19.00064770
H 16.81497593 21.32974051 18.96251826
H 22.58616595 19.45758585 22.14664521
H 21.81376807 19.75262665 23.45711379
H 19.46528661 17.06204005 25.76614851
H 19.64059107 16.84282217 24.21697715
H 15.78489835 17.44561215 22.02450888
H 14.89931551 18.74668134 22.19918877
H 21.05577365 21.25564947 21.82826273
H 19.53562156 20.77581055 21.89851408
H 17.21294963 19.41290800 21.92590700
H 17.93111740 20.06664294 20.60535762
H 17.63730798 18.39825901 18.40228400
O 17.81665264 17.67496107 19.08117152
O 19.29077880 22.72268559 19.41104581
O 20.92208183 16.63472213 22.97537085
O 20.15979819 19.67526656 24.24334738
O 20.40401405 18.15700345 20.68763937
O 19.23561265 21.18338975 26.93849230
O 16.58291725 16.16813183 23.38506975
O 17.63323162 20.71807537 19.09742816
O 22.33069273 20.23002025 22.75775810
O 18.96651383 17.22140526 24.89459061
O 15.65832826 18.37961260 21.71315881
O 20.10119603 21.65045409 21.81452809
O 18.15192743 19.53448017 21.47372048
39
i = 0, time = 0.0, E = 0.0;
H 20.02749394 20.75761112 18.65751009
H 22.68042400 22.42520645 20.37405838
H 22.15872017 21.39066639 21.35389627
H 21.16376325 16.42807209 22.44021093
H 21.31825923 17.64383606 21.48597235
H 17.97939459 20.06550548 26.41076468
H 18.43640188 20.78494498 25.06031782
H 17.89046819 19.72062558 21.13292715
H 17.45741275 18.73012681 22.26285164
H 17.99839411 21.00671430 23.03955980
H 19.46189495 21.56467042 23.04019681
H 18.95352082 17.29166455 24.86022721
H 18.08520816 18.54043243 25.27512139
H 18.49010578 21.63387296 19.86745689
H 17.60927115 22.49214067 20.84178800
H 19.73722021 18.96829701 22.70577979
H 19.82149200 19.01259148 24.25361470
H 18.50062276 13.93369639 21.90124212
H 17.17712439 14.67816608 21.62132357
H 17.11331277 17.06727185 23.43222574
H 15.84384192 17.48387555 22.51206838
H 21.23563157 20.33013000 23.18581788
H 21.88644425 21.55906304 23.60930541
H 16.50813325 19.98305314 19.86038807
H 15.18221315 19.46186086 19.63053438
H 20.95029774 21.42840991 19.73717292
O 19.97616183 21.18697681 19.56973948
O 22.54506343 21.42586864 20.42117373
O 21.49200586 16.66222753 21.55020007
O 18.65485702 20.08407188 25.69081968
O 18.17367904 19.35153189 22.05918423
O 18.61182101 21.63876847 23.51540472
O 18.02300352 17.57418392 24.93655767
O 17.61366017 21.68583161 20.26606176
O 20.38857155 18.76819288 23.44817233
O 17.51928369 13.84918799 22.04515551
O 16.74499164 17.14013644 22.48104920
O 21.37472161 21.23280741 22.82261282
O 16.10404023 19.16099839 19.60073555
39
i = 0, time = 0.0, E = 0.0;
H 21.44738536 16.97263728 19.89376024
H 18.82872719 20.15648940 21.21645027
H 20.35336907 20.70468784 21.14182537
H 20.94400741 17.38855570 22.10958082
H 20.67235914 18.88167192 21.72977050
H 19.17347772 19.73986567 25.05024854
H 18.41303071 20.48109996 23.85876719
H 19.09249751 16.78594019 20.59565312
H 19.74360477 15.44228219 20.80458740
H 19.68540102 21.91572480 23.12147714
H 18.22906189 21.77989481 22.26212169
H 16.55236899 19.94596906 24.43845570
H 15.55436676 18.72261714 24.64550071
H 18.09083403 18.27042189 19.79981874
H 17.45558736 17.45874429 21.10256451
H 21.69060959 18.84846712 23.69834551
H 22.53144833 19.32622219 24.97245375
H 18.62619485 17.13993930 22.74333473
H 17.99320304 18.39645279 23.42604624
H 15.09731191 19.72964473 22.73335393
H 14.49153022 19.38825555 21.26490807
H 21.78238724 20.83668326 23.16526533
H 22.08441228 22.23452190 22.48587920
H 16.33767566 20.41573725 21.27127962
H 16.91056246 21.77973619 20.61641077
H 22.34410018 18.03454415 20.48291770
O 22.31620893 17.44045706 19.64748227
O 19.75926775 20.02716406 20.81899768
O 21.34552029 18.28867030 22.09023664
O 18.39076187 19.74469427 24.46830341
O 19.89853781 16.38363419 21.08833273
O 18.65429837 22.03958645 23.13270597
O 15.58908056 19.68691150 24.30255930
O 17.85701945 17.31845683 20.10707569
O 21.72119040 19.51388207 24.46396563
O 17.77004909 17.57081086 22.87617283
O 15.34162713 19.45634215 21.76967536
O 21.40573761 21.52745251 22.57604403
O 17.14367736 20.98989487 21.06037292
39
i = 0, time = 0.0, E = 0.0;
H 20.46743051 19.96935628 20.31177037
H 19.26833176 22.16955458 20.71093045
H 20.61693898 21.78603789 21.51043131
H 18.91664065 14.36389509 21.85878408
H 18.75701902 15.64289626 22.64504232
H 18.15130508 20.14115502 24.65022254
H 19.49977168 19.37662753 24.23637918
H 19.17298893 18.36393484 21.02481104
H 18.68267470 16.99000086 20.97913217
H 17.62356573 22.69989656 23.95677946
H 17.87699974 21.82706600 22.66278869
H 18.18207541 16.50312028 24.68012248
H 18.20481135 17.50942948 23.54887406
H 18.23624203 18.62077938 18.76920661
H 18.71118690 19.98968656 18.50414475
H 21.31699426 18.13578423 23.69555601
H 20.91354636 18.83565655 22.40630968
H 19.22616654 17.67452816 26.00824291
H 19.33926156 16.35759464 26.82417642
H 17.13754714 18.91683170 20.67662244
H 15.58301114 19.28848260 20.53553617
H 21.26138664 21.02304534 23.36765851
H 20.24997461 22.18448545 23.49950276
H 16.62620470 22.72748460 20.78383121
H 16.92084428 21.11337814 20.65262694
H 20.21633272 18.77723798 19.40218978
O 20.70848926 18.98734745 20.23303524
O 20.16154263 21.70895077 20.57958881
O 19.47444024 15.12511620 22.17686102
O 18.77351540 19.40821503 24.89203315
O 18.28404410 17.88380115 21.13990638
O 17.93583072 21.82597728 23.64450581
O 17.83271678 16.62626281 23.78739804
O 18.79281799 19.05042540 18.10005669
O 20.93631338 18.98041885 23.37087733
O 19.49734781 16.75807305 25.95607300
O 16.45797737 19.60284452 20.52578804
O 21.19567627 22.01132250 23.22265311
O 17.32915086 22.00589954 20.81908426
39
i = 0, time = 0.0, E = 0.0;
H 19.04709494 19.38467012 22.23293082
H 20.24138984 22.86559901 21.67033381
H 19.52829172 24.17679564 22.33522151
H 20.63619470 18.14106387 21.39104625
H 21.32682799 16.79146189 21.54929286
H 18.99414547 18.60155394 24.19521766
H 18.94670823 20.23114343 23.92503814
H 18.37884659 17.76376561 20.99943145
H 18.33004278 16.76441756 19.71509151
H 18.32154718 22.21602416 22.71892327
H 17.05796691 21.19746663 23.01726278
H 19.35433794 15.97136040 23.49588551
H 18.83544005 16.25579025 24.98166405
H 18.10002217 22.38390458 20.44237616
H 16.60053498 21.51380662 20.41292810
H 22.13117356 18.99781111 22.65678443
H 21.30026706 19.80047797 23.57682960
H 19.50932257 15.63105250 21.39097288
H 20.11680087 14.30373341 21.90503498
H 17.10892510 17.21445284 23.34858844
H 16.05955471 16.82499708 22.18147940
H 21.59589519 21.08164556 22.01267847
H 20.84387007 20.67763204 20.77192171
H 16.10688105 19.14469731 22.47992703
H 15.12354974 20.31136054 22.84908264
H 18.27674289 20.08428910 21.00793447
O 18.84573146 19.25312857 21.29422770
O 19.41342364 23.40237937 21.70767125
O 21.59908268 17.73722866 21.31622682
O 19.49971056 19.34365099 23.88415265
O 18.32946890 16.76888016 20.67941988
O 17.90659783 21.61616312 23.36446536
O 18.65327662 16.37918032 24.04157963
O 17.57480094 21.55374886 20.17645902
O 22.24031783 19.80274359 23.29013940
O 20.12935362 15.22524466 22.15243588
O 16.23558544 17.44892716 22.93145230
O 20.98931993 21.46024041 21.35461093
O 15.91826389 20.15053840 22.29520362
39
i = 0, time = 0.0, E = 0.0;
H 21.22875271 19.77390925 20.19429115
H 17.48978208 22.52847612 22.10515403
H 18.55502821 23.36599281 22.85011930
H 21.40023239 17.21133895 21.82628777
H 22.27832091 17.79278332 20.75098338
H 19.22326260 17.35938819 25.50563246
H 20.05092705 18.49570703 26.38186129
H 19.52167015 19.79283737 22.04920385
H 19.51565381 18.56920018 23.02478220
H 14.99983223 23.22699618 22.00057746
H 15.33525296 21.63792258 21.49516621
H 17.21161839 15.70695632 24.19241971
H 17.28318657 16.94583318 23.32036046
H 18.57929070 21.37000630 20.31059490
H 18.54558663 20.45413937 19.13757195
H 22.33348372 18.73751343 23.38789503
H 21.11436194 18.70893205 24.27131705
H 20.76233695 15.23029865 23.61797092
H 19.38181531 16.07693458 23.38030059
H 16.51111976 17.80262721 21.20662973
H 17.86079217 18.49750382 21.86026627
H 21.28195535 20.76394118 22.49225900
H 19.99912094 21.69023520 22.12078863
H 15.80985762 19.75630375 21.37266831
H 16.01279853 20.38367047 19.98347866
H 20.25711283 18.62668802 19.97346377
O 21.09969666 19.02642352 19.57629221
O 18.45243909 22.47706087 22.42227765
O 22.35743644 17.47213354 21.64158477
O 19.84500857 18.12301181 25.51523813
O 19.32987600 18.81008969 22.07806114
O 15.61174474 22.45723103 21.99761712
O 17.82003580 16.45353564 24.02675382
O 17.99108825 20.64001664 19.92661496
O 21.61863179 19.33040845 23.69120838
O 20.27560847 15.83800166 23.05601723
O 16.91960649 18.09460454 22.08470792
O 20.71619428 21.11647266 21.73119302
O 15.25530507 20.16602040 20.64293754
39
i = 0, time = 0.0, E = 0.0;
H 21.26790749 21.07213148 20.61205493
H 17.46554316 20.11225049 20.37455924
H 17.99312426 21.47126992 20.10511474
H 22.91270972 17.55402360 23.68620079
H 21.56049383 18.18708498 23.20392236
H 17.89977943 19.43224659 24.84407345
H 16.86912152 20.49941254 24.31405403
H 21.19096069 19.43926675 21.65986862
H 19.70394547 18.75142334 21.36068779
H 15.66299155 19.70343981 22.58221659
H 16.22894562 21.13024562 22.07605937
H 19.36819297 16.49499773 24.29988913
H 19.28278238 17.91091458 23.53153883
H 20.02164587 19.34730991 17.88683238
H 19.12612501 19.65481172 19.06404138
H 19.82384505 20.66799675 23.12688370
H 18.77830488 21.31963257 24.07283292
H 21.49068334 15.74618265 23.74145391
H 20.60403322 14.42594988 23.65005883
H 16.94061821 17.16616039 23.61638337
H 15.38934383 17.12295307 23.33726407
H 19.43909390 22.14534797 21.86674946
H 19.93809615 23.12280120 20.73920948
H 16.81147518 17.91468031 21.40886564
H 17.74407780 17.41196613 20.27676640
H 21.86607446 19.74953351 20.00094555
O 22.04732515 20.51608990 20.66491691
O 17.53942133 20.73789608 19.60620711
O 21.95624515 17.66269032 23.91213578
O 17.53044919 20.38977086 25.09750330
O 20.36161040 19.07797891 22.10769542
O 15.85115792 20.61131717 22.81858621
O 18.72171034 17.30260487 24.06666989
O 19.80970615 19.05414709 18.79484654
O 19.54507843 21.53448566 23.53376791
O 20.59523221 15.39138282 23.56853150
O 16.20866312 17.48663510 22.97420906
O 19.62838033 22.18607489 20.86978199
O 17.31896476 18.23993085 20.58819714
39
i = 0, time = 0.0, E = 0.0;
H 21.95547038 21.47020602 20.15046700
H 18.18435536 21.94413646 19.10080269
H 18.88875763 21.88459963 20.48948736
H 20.69886068 16.41643679 21.39219482
H 20.05069347 14.99098446 21.17753672
H 17.28056450 20.40478509 26.18689151
H 17.27694031 20.44133213 24.58145253
H 20.61728427 18.74577096 21.11430119
H 19.63612140 18.25500368 22.27100170
H 17.48657045 21.71321192 22.83457661
H 16.39975369 20.49473264 22.63053962
H 18.09656130 16.28267775 24.67457603
H 17.29882171 17.73141179 25.07153315
H 19.50484613 18.44905575 18.66528811
H 19.48939890 19.70919455 19.48011027
H 19.61586479 20.76458153 24.47516327
H 20.41519060 20.00231279 23.31935745
H 20.03818323 15.48780008 23.42575021
H 20.62625927 16.15300242 24.73790567
H 17.57366901 17.23743709 22.77735698
H 18.50875483 17.03589013 21.51694902
H 19.92597144 21.79328530 22.58138278
H 20.19537858 23.26767936 22.10916745
H 16.32554692 19.95386759 20.44666692
H 16.50762155 18.96051225 21.63178070
H 21.98626500 20.31559188 19.19317744
O 22.58731407 20.87318685 19.70690484
O 18.47808606 21.32052660 19.79979087
O 19.85126551 15.95271517 21.28157677
O 17.85541493 20.16579374 25.40154717
O 20.63062002 18.27834581 22.01838473
O 16.75419841 21.21198643 23.25872657
O 17.30627789 16.92291499 24.53873760
O 20.08978262 18.99336823 19.20626798
O 20.36983409 20.87973789 23.85974512
O 19.81707052 15.66877859 24.40107338
O 18.01873951 17.72091132 21.98125317
O 19.60600352 22.43225672 21.87944694
O 15.79950167 19.62233047 21.23198718
39
i = 0, time = 0.0, E = 0.0;
H 21.16670140 20.14485336 18.81215851
H 18.59605418 23.72696453 21.69453001
H 19.46149381 22.37139664 21.57211509
H 21.84049474 16.08216203 22.35282990
H 20.78697162 17.20297805 22.50583088
H 18.31849072 17.97103968 25.39510596
H 18.57913000 19.48533838 25.32840399
H 20.14808553 18.97719576 20.58245001
H 20.24664957 19.05162126 22.33482498
H 17.94604433 21.08788798 23.06358136
H 17.09556145 19.92439594 23.56925778
H 16.56647903 16.46205914 24.49296151
H 17.97853094 16.30500831 23.90118365
H 17.62527151 20.79684216 19.08394104
H 18.41347634 22.04262330 19.78475067
H 20.38902765 19.51387695 24.57090835
H 21.67742368 19.01970445 23.97399752
H 19.97059723 15.14489695 23.30416765
H 18.85084488 14.05679934 23.19841774
H 17.08770878 17.81848061 22.21579996
H 18.18570310 18.62294283 21.51654589
H 21.10445357 21.12831134 21.17742759
H 21.21981996 21.43197690 22.65256132
H 16.42876866 19.48408725 20.35695306
H 15.68233032 20.28543861 19.25611143
H 19.64120271 20.57057077 19.26468789
O 20.48748819 19.97871811 19.49225033
O 18.55012821 22.78484832 21.42793473
O 21.23046597 16.42912070 23.05863978
O 18.85480139 18.68457174 25.88369445
O 19.86607808 18.53619532 21.51344623
O 17.78916981 20.52106378 23.84739978
O 17.21871000 16.99050638 24.05362736
O 18.44995930 21.40035786 18.97446490
O 21.00526109 19.72091716 23.81222112
O 19.02825845 14.93010554 23.58754656
O 17.20306971 18.65121365 21.74590277
O 21.10292759 21.88285221 21.78546589
O 16.35110193 19.60773779 19.38750525
39
i = 0, time = 0.0, E = 0.0;
H 20.99088485 17.52663420 19.40109136
H 18.77487801 23.37025912 19.76382752
H 19.31537941 22.45685214 20.93369771
H 21.80003150 17.32000104 24.39689459
H 20.80235959 17.99000403 23.35898611
H 16.55331417 20.27750697 24.94498242
H 16.97702042 20.23646787 23.42769057
H 20.73675120 18.73136874 21.20900003
H 19.40958783 18.37140525 21.96900804
H 16.86068878 20.73500400 21.13669544
H 18.03970625 21.35432707 22.01880958
H 17.58528703 16.69877267 24.15907413
H 16.93371752 18.11819234 24.09969861
H 20.22255730 21.29125379 19.06567367
H 21.63759957 21.24784567 18.62869752
H 19.04567458 20.83368701 24.75242637
H 20.26902351 19.84358765 24.75967245
H 19.73746855 16.33824871 24.56385617
H 19.74984386 14.68168078 24.39147469
H 17.58575474 17.15175406 22.25122998
H 18.28255868 16.41721861 21.04402130
H 19.90986504 21.80543844 23.38232881
H 20.26478382 20.70204927 22.28639936
H 16.95298355 18.44133850 20.67966633
H 15.58711280 18.66317222 21.36644446
H 21.37931125 19.01010950 19.45273738
O 21.47578506 18.16140251 19.98431893
O 19.26910696 22.57637057 19.94520636
O 20.85039340 17.40985166 24.26065477
O 17.17936256 19.79704499 24.29595632
O 20.25551019 18.94784399 22.08132914
O 17.01420024 21.25502961 21.92841350
O 16.89406307 17.20605564 23.62905118
O 20.87741516 20.65224749 18.78382429
O 20.02859994 20.84049934 24.87112192
O 19.17462457 15.49520980 24.40371408
O 18.20302827 17.31963433 21.45231114
O 19.90076038 21.65529034 22.35391643
O 15.98956818 18.74472696 20.48687266
39
i = 0, time = 0.0, E = 0.0;
H 20.69862493 18.18127686 17.97494138
H 20.90579903 20.73352654 20.11415293
H 20.72148957 21.68064233 21.29419039
H 19.91986811 16.24605345 22.53732369
H 19.01862474 15.00254532 22.97330041
H 19.16626099 18.98984280 26.39730900
H 19.30142423 20.32482266 27.03276099
H 20.38968592 17.81820417 20.43639762
H 18.94108972 17.68406839 21.26402830
H 18.60178049 21.37103565 23.36496468
H 17.38466084 22.40927859 23.27401346
H 17.27493264 18.72554244 24.04838912
H 16.91744926 20.11801745 23.51319773
H 19.19901846 21.47422992 19.63208576
H 18.21802216 22.23720759 18.72015916
H 20.66112857 18.19930756 22.60911465
H 20.86929369 18.60857003 24.23613077
H 18.99423282 16.92189151 24.56503528
H 17.88291696 16.76049072 25.68094067
H 17.04244808 17.82811067 21.89231831
H 17.10044910 18.03296446 20.34079687
H 20.67463574 20.34789158 23.31563982
H 20.51423270 21.77042138 23.88615091
H 17.18560663 20.23488840 19.35436679
H 15.64885650 19.88355234 19.41151452
H 19.92489010 19.59118453 18.35599403
O 20.50287054 18.88116429 18.70875820
O 20.63112868 21.64214304 20.28945805
O 19.70549878 15.66612446 23.29501942
O 19.86213224 19.66485708 26.56571319
O 19.96971506 17.63384108 21.34660922
O 17.70796015 21.63673103 23.77940172
O 16.72708444 19.14303156 23.31321759
O 18.39891807 21.37996779 19.03691948
O 21.11062010 18.82223072 23.34056079
O 18.49581416 17.43579596 25.28510415
O 17.37443252 17.34931358 21.07005589
O 20.24826005 21.26492847 23.12835652
O 16.51953547 19.44270456 19.39430995
39
i = 0, time = 0.0, E = 0.0;
H 21.32531842 18.93951278 18.05619856
H 16.53663878 21.72868342 19.93633551
H 17.37749309 22.75177388 20.33516439
H 20.66214628 15.71149874 21.59270795
H 20.30299658 17.24505977 21.84816679
H 20.18138718 18.72394065 24.45882031
H 19.35174033 20.02249353 24.52474701
H 20.31851327 18.86176237 20.46154491
H 18.82526603 18.64695888 21.24732563
H 17.96036700 21.83258884 23.42263743
H 16.84018794 22.95245262 23.72114556
H 18.68782640 16.97041736 23.34691599
H 18.04051887 18.17053165 24.04932274
H 18.75105397 21.45803237 18.79177057
H 19.34519862 21.47283333 17.32476270
H 22.46306904 18.09166068 24.43063694
H 21.77080095 18.08115173 23.07585211
H 19.96926256 16.16063321 26.95666135
H 20.01688558 14.96213976 26.09159531
H 17.40771311 17.65169695 22.17684644
H 16.65434710 17.91380753 20.76656519
H 19.65598229 20.21966624 22.47726903
H 20.29818048 21.44115953 23.08484528
H 16.71281830 20.04933244 21.69219392
H 16.16438087 21.27733729 22.46404907
H 20.10382066 19.68081153 18.48621179
O 20.52213917 18.73306276 18.53448249
O 17.24701039 22.25240743 19.52461920
O 20.47010663 16.34525184 22.34070628
O 19.33412299 19.04710734 24.85799973
O 19.82661235 18.86793261 21.27588546
O 17.01572058 21.99285338 23.80218624
O 17.83615315 17.30074260 23.60686068
O 19.54616644 21.14409447 18.20407019
O 21.95108189 18.67989637 23.85436275
O 20.52146116 15.36463748 26.84066717
O 17.30878827 18.32507083 21.34879263
O 19.36095463 21.06586448 22.90968121
O 16.15195352 20.85384334 21.54168595
39
i = 0, time = 0.0, E = 0.0;
H 21.40778174 19.37301668 18.55988295
H 18.18250922 21.52331578 20.74073124
H 19.46279527 22.09460492 21.35603748
H 19.21199630 15.78189530 21.89386547
H 17.90570181 15.62681975 22.71166712
H 18.76633275 20.38034438 24.59186084
H 17.48947260 21.05097389 24.91691961
H 20.62053639 17.68132115 20.23316541
H 18.97940959 17.51888411 20.67457516
H 18.50388071 22.42028653 23.79841927
H 17.41743019 22.80895807 22.85016157
H 18.11169201 17.50373887 23.78499782
H 17.44792869 18.93305827 24.17731336
H 19.91254675 20.94199001 19.34224176
H 20.99263450 21.53907945 18.42981773
H 20.32127896 18.26077354 24.06817589
H 20.49342441 18.46793573 22.47927472
H 19.54281282 15.93315120 24.04374002
H 20.30043412 16.05118443 25.34961735
H 16.99955770 17.73336315 22.20963289
H 16.02755484 17.24136377 20.95003845
H 20.22665412 20.55708817 23.28824797
H 20.58967463 22.11970355 23.72385542
H 16.70758665 19.37890723 21.20487163
H 16.62118948 20.46776112 22.35081262
H 22.70098582 18.56902446 19.14258500
O 21.76937731 18.39489938 18.83338180
O 18.91461245 22.17471475 20.54204662
O 18.87475733 15.34026914 22.72586844
O 17.97197555 20.20175118 25.19230973
O 19.97721972 17.47457493 20.98045190
O 17.59482659 22.74015588 23.83980938
O 17.27761707 17.98259677 23.75445770
O 20.63344092 20.70470114 18.73890464
O 20.62593490 18.94823604 23.34014145
O 19.96687998 16.60757014 24.62286698
O 16.93241940 17.56936064 21.19114154
O 19.88783377 21.53592561 23.37668794
O 16.71452626 20.36475534 21.37463415
39
i = 0, time = 0.0, E = 0.0;
H 20.41123788 19.14032522 19.17223088
H 20.03234471 22.08993095 21.26563606
H 19.51578041 23.44395120 20.63733391
H 20.65294492 15.88288393 23.85565391
H 19.84658149 15.96789788 22.50857436
H 20.07526768 18.72036242 25.96856439
H 19.14855673 19.73722417 25.33687937
H 20.47074481 17.31658997 20.46999860
H 18.96885252 17.29609230 20.97454204
H 19.43380056 21.73404678 24.18515505
H 17.87238444 21.26286341 23.87052167
H 16.43450392 17.51436420 22.85196829
H 15.47571210 18.75083688 22.29430070
H 19.26582286 21.47570137 19.37801915
H 18.47809136 21.03400413 18.06158144
H 20.29491137 18.66835835 22.24894978
H 20.07970899 19.10134116 23.78625499
H 18.13973554 16.36852184 23.95195730
H 17.63288236 17.52875684 24.83132119
H 17.25037651 18.62859866 21.04726800
H 17.85862615 19.37403882 19.87048517
H 20.99839130 20.72400005 22.82027612
H 21.89286743 22.07930964 23.06805219
H 16.32166998 21.39498691 22.18228410
H 17.66390599 20.53289213 21.88586594
H 21.52851392 18.16821594 18.57199832
O 21.16073435 18.48419951 19.40870513
O 19.26053580 22.50190344 20.74631562
O 19.78514304 15.71152163 23.46373925
O 19.28298956 18.77100222 25.36090086
O 19.80686206 16.81002068 21.10843692
O 18.60420310 21.33227341 24.54426079
O 15.90160939 17.91423855 22.01867725
O 19.08765722 20.67588711 18.78229807
O 20.72908206 19.16549554 22.98445540
O 17.28207801 16.85222210 24.14090904
O 18.14027929 18.99249103 20.74709079
O 21.03846144 21.75440959 22.75759029
O 17.01135674 20.82324466 22.56127044
39
i = 0, time = 0.0, E = 0.0;
H 21.81158943 19.86362165 20.42349257
H 17.76174880 20.76378588 20.83889623
H 18.92777665 21.87486744 20.79542552
H 18.67893156 14.94862718 22.53019867
H 19.62168177 15.83072143 21.60882676
H 18.58195663 21.27033806 26.37458973
H 18.28795171 21.07831509 24.91632361
H 20.17293820 18.17339769 20.20470542
H 18.55118786 17.78390386 20.48402428
H 16.48847551 21.64088363 23.62670622
H 17.76835777 22.01089629 22.84911993
H 18.52273653 17.56024178 24.62876710
H 18.03534598 18.77945897 25.41672328
H 19.32524716 19.72993697 18.57400915
H 19.87809438 21.01068243 18.03268007
H 20.88395953 18.80406698 23.23065508
H 20.14929919 19.76914435 24.11582827
H 20.62449439 16.72228277 24.83355063
H 19.94066992 16.37888533 23.50403580
H 16.44141578 18.29872194 23.75283623
H 14.95350084 18.42247841 23.37141993
H 20.69321442 20.77832679 22.04768240
H 21.76524453 21.91194650 21.47262077
H 16.56111772 19.06774869 21.59175286
H 16.09602326 19.23001032 20.08020139
H 21.71433393 19.51244380 19.02609729
O 21.75691282 19.07522908 19.87179914
O 17.95529568 21.76611979 20.93716260
O 19.61602678 15.21179408 22.37295811
O 18.63074919 20.58916029 25.69512012
O 19.53477180 17.43598351 20.53107351
O 17.44573212 21.92418637 23.76189082
O 17.66457583 17.91629778 25.02429005
O 19.97662157 20.05896066 17.98050736
O 20.74132310 19.78676364 23.24904065
O 20.14042304 17.16061974 24.09132722
O 15.85176813 18.71065644 23.06754853
O 21.08076759 21.20530073 21.22833682
O 16.91697431 19.11923082 20.60974599
39
i = 0, time = 0.0, E = 0.0;
H 18.59319299 19.26111654 18.81847341
H 16.43641353 20.37150878 21.06434270
H 17.73695951 21.29797691 21.05867699
H 22.01290933 16.64957051 21.92904382
H 22.82428274 15.39674554 22.46191351
H 18.96168260 20.58308516 25.83939472
H 18.19173890 21.22272749 24.60478960
H 19.90835734 17.99782263 20.13812100
H 19.68089875 17.26962607 21.51272127
H 16.51583729 22.43658604 24.16804360
H 17.29260961 22.04694093 22.87699943
H 19.00252981 17.79914168 25.03754390
H 17.84953937 18.57315107 24.72008398
H 18.90179856 21.54716860 19.42407434
H 17.63039318 21.45309201 18.52215342
H 20.94442550 19.60026204 22.07285996
H 20.39815127 20.46279768 23.21077854
H 21.46142632 18.37653582 24.91988579
H 21.29853378 16.98527620 24.23752721
H 18.19777019 16.58225717 23.47363628
H 19.20867463 15.46801219 22.98971054
H 20.15301899 21.49445752 21.56569671
H 19.70420946 22.95306859 21.06485667
H 16.67307882 17.71878972 21.37275069
H 15.59813745 18.16323744 22.29084286
H 18.64408480 17.85585960 17.88807827
O 18.84272442 18.26649072 18.74345338
O 16.77770277 21.36074306 21.18637901
O 22.34020641 16.24602993 22.75529414
O 18.83723179 20.43830930 24.85034040
O 20.37028390 17.77319848 20.99368299
O 17.45106726 22.35537010 23.83080351
O 18.01581484 17.59602053 24.88935822
O 18.56633530 21.09651208 18.59959832
O 21.07529273 20.48877461 22.49185698
O 20.76868569 17.67295015 24.74405927
O 18.64844193 16.22474062 22.68385302
O 19.40150532 22.00715552 21.21596968
O 16.11689162 18.53789628 21.50345088
39
i = 0, time = 0.0, E = 0.0;
H 20.85643217 17.18879592 19.87190643
H 19.34535397 22.14577624 18.94042728
H 19.95869624 21.53895146 20.21379036
H 21.05726492 15.79089345 22.70019494
H 20.11560199 16.97445646 23.22250248
H 19.95302207 20.84082460 24.45013180
H 18.37135898 20.93399739 24.57058739
H 19.71283340 18.56009284 21.44783609
H 18.65929541 18.62057740 22.56631420
H 16.08650815 21.38591941 24.36547065
H 16.86747900 20.41813283 23.20072388
H 17.55005113 17.61327726 24.08036161
H 16.30914927 18.27823558 23.60557407
H 19.46274811 18.96376564 17.79322493
H 20.49345901 20.00465237 17.78619026
H 21.70791718 19.07560350 24.90601386
H 20.65014477 19.08146747 23.72959847
H 19.43182849 18.12747373 25.42426783
H 19.10571503 16.76147344 24.95939259
H 16.37373770 17.33947299 21.54134771
H 15.11312975 17.73289081 20.86281706
H 21.31693982 22.16444099 22.18080254
H 19.82096558 21.83164840 22.63053286
H 16.84443879 19.45590112 21.07509468
H 17.90185808 20.53644252 20.89050254
H 20.68076054 18.48982283 18.91117428
O 20.67551366 18.13939185 19.92221577
O 20.04228679 21.55545483 19.20880043
O 20.63751249 16.16501781 23.52441531
O 19.19896303 21.46480558 24.41172706
O 19.65973142 18.58113159 22.42304089
O 16.61926456 20.55860069 24.15924143
O 16.94056167 17.60011381 23.28133240
O 20.39399855 19.03815341 17.50475410
O 20.76306690 19.16523594 24.70906337
O 18.66613437 17.50267307 25.42103206
O 16.05948204 17.85776476 20.67001897
O 20.39998865 22.08059489 21.83683778
O 17.16033992 20.33709713 21.49980724
39
i = 0, time = 0.0, E = 0.0;
H 20.83283265 18.77049726 18.25747680
H 19.13695267 21.92068845 21.14000369
H 18.79847898 22.58422769 19.81591652
H 20.65275949 17.76924092 24.03457420
H 20.03343307 17.68566597 22.58609427
H 18.39971843 19.32916730 26.06330552
H 17.42092441 19.93112262 25.27168877
H 20.32877853 18.32987616 20.22792605
H 19.24593957 17.38373125 20.76267384
H 18.41536497 21.80538419 23.69663013
H 17.32728322 20.79237353 23.10721983
H 18.29870411 16.85055546 24.30045897
H 16.96745871 17.72766603 24.38219488
H 18.17443381 20.98295008 18.48617763
H 18.49710848 20.85830522 16.89153119
H 20.73424428 19.57801806 22.93293278
H 21.13131971 20.05858541 21.51310140
H 21.77266220 15.44627287 25.49571666
H 20.44113764 15.28093822 24.59612837
H 17.56457965 17.03608120 22.47164018
H 16.70991315 16.79472080 21.19241012
H 20.63809412 21.66563943 22.80940878
H 20.37401485 23.20552805 22.97392024
H 17.43507851 20.41748933 20.98505190
H 17.23076335 19.00586737 21.75771227
H 19.92274906 20.01851578 18.53188220
O 20.64856943 19.44022154 18.98675324
O 18.89280727 21.70754213 20.21835345
O 19.91667420 18.12191748 23.52744766
O 17.52150741 19.09142359 25.74386943
O 20.21638808 17.55700931 20.90551076
O 17.64199675 21.23770935 23.91061833
O 17.32462785 16.83150391 24.13053617
O 18.41691892 20.38408743 17.72338847
O 21.34478945 20.17757474 22.43982672
O 20.85503057 15.86658224 25.27219242
O 17.54214115 17.18146594 21.48097140
O 19.92570544 22.41270146 22.72271645
O 16.79718042 19.94972118 21.61361805
39
i = 0, time = 0.0, E = 0.0;
H 19.41331170 18.36419014 20.31054654
H 18.53144542 21.58580423 20.51708351
H 20.07728218 21.63500174 20.76661550
H 22.32352752 17.92215419 22.68361167
H 21.04453284 18.23493523 21.85103037
H 17.82693188 20.26260231 25.84372906
H 17.98683144 20.56935570 24.30805090
H 19.79141286 14.15078954 20.83061538
H 19.93280058 15.71266331 20.69197508
H 19.03695303 21.75432499 22.83912078
H 17.44027115 21.94297257 22.41872727
H 17.82735586 17.44249909 23.61430114
H 17.25047929 18.75246409 24.03537213
H 19.41062012 19.35427310 18.12375665
H 19.19980430 20.39183585 19.29882870
H 21.31434026 19.28022431 24.34242942
H 20.07640191 20.04364087 25.05064071
H 19.67728643 15.60895478 22.82827229
H 20.13555633 16.97203110 23.46835148
H 16.70389312 18.51944343 21.81978085
H 17.10593074 18.65907164 20.29266526
H 20.58330143 20.51069363 23.09732436
H 21.09103725 21.91561063 23.27824803
H 16.54500427 20.43821114 21.02235249
H 15.98563795 21.77322514 20.38793230
H 18.92146534 18.04041350 21.71109622
O 19.41484122 17.66908938 21.00706648
O 19.38596626 21.62384765 20.06471311
O 21.50654266 18.43522420 22.72345465
O 18.20656834 19.84365852 24.99918641
O 20.20486789 14.95447658 21.23235329
O 18.09449631 21.79624598 23.17689639