21
i = 0, time = 0.0, E = 0.0;
H 18.04300992 18.81952844 16.80139348
H 21.76743514 20.98792047 16.10218416
H 21.25817788 20.14999825 17.36915844
H 21.00989928 19.37099591 19.84930464
H 19.80869502 20.35945731 19.92091973
H 15.68404335 19.47264629 19.79661305
H 16.82052272 19.57461671 18.79318243
H 18.03412131 21.44129926 21.04007030
H 18.48125411 22.08568305 19.71454526
H 17.90485238 20.60706300 15.04786820
H 19.14761232 20.72023335 15.93556395
H 18.08005548 21.93397364 17.39804560
H 16.84204899 22.16910715 18.28295878
H 19.00072776 18.50640542 17.96079231
O 18.00510995 18.36241711 17.65917229
O 21.00613273 20.53086973 16.47331875
O 20.31838811 19.71082472 19.22437088
O 16.08747361 20.11757074 19.18522148
O 18.86970770 21.62847618 20.54580397
O 18.15875835 20.59247027 15.99010426
O 17.79563516 22.42259537 18.18037905
21
i = 0, time = 0.0, E = 0.0;
H 18.69354227 18.96345670 18.34990750
H 20.38246576 23.08742887 15.61206197
H 19.71885158 21.66102046 15.92882340
H 21.04389047 21.72191948 17.45770481
H 20.52055875 21.19849363 18.85068245
H 15.92163641 20.19184698 18.63767952
H 14.94315579 19.17608263 19.40076177
H 18.64299718 20.01398019 19.81562837
H 19.64774518 20.33107703 21.04099792
H 19.92891477 18.22820448 16.64672833
H 20.43593880 19.60796923 17.16713943
H 17.22963308 22.34017617 18.12485490
H 16.44832629 21.53474770 17.13395099
H 17.23595064 18.69411133 19.21276715
O 18.20546483 18.77728477 19.26122920
O 19.87190162 22.55910562 16.25139135
O 21.20639258 21.05136715 18.12562512
O 15.57089129 19.29167622 18.65833511
O 19.29759464 20.74929226 20.23365279
O 19.67674973 19.18041316 16.65868135
O 16.48081269 21.72133280 18.10933167
21
i = 0, time = 0.0, E = 0.0;
H 20.05603915 18.89277483 16.86451189
H 21.05608805 18.81979875 19.50805573
H 22.48950289 19.27061283 19.83052159
H 19.23480708 17.88659412 20.98903298
H 18.91110785 18.08054407 19.46786085
H 16.61452604 21.58098316 16.78526319
H 15.54688162 22.51947471 17.59937828
H 16.96529007 19.52051602 18.47770081
H 18.08654348 19.02678769 17.48413633
H 20.05337838 21.73134501 18.32341494
H 21.14502094 20.66504732 18.20724233
H 14.76098518 25.04030130 18.65396482
H 15.72456842 25.59571257 17.55280440
H 19.69438935 20.31757212 16.81541245
O 19.39821989 19.35147540 16.36752573
O 21.75824309 19.37596211 19.15534398
O 19.59526534 17.77586114 20.08667706
O 16.04629144 21.69987082 17.57322364
O 17.73013949 18.93422657 18.42973434
O 20.55811164 21.28811013 17.63264372
O 15.25217039 24.76651152 17.85277002
21
i = 0, time = 0.0, E = 0.0;
H 16.40306321 18.65378273 16.24258361
H 21.09952036 20.38332670 18.83447166
H 22.17008576 20.71521485 17.76923259
H 19.52619002 18.68052566 20.44823328
H 18.68442310 19.97044779 20.07544117
H 16.03253951 22.49928975 18.36183777
H 17.53562442 21.89423682 18.41280584
H 16.50035015 20.73831557 20.01367870
H 16.54842086 19.66806570 21.31592295
H 19.44351690 19.60438404 15.64721802
H 19.95409542 21.09326063 15.69489462
H 19.22722393 22.68766439 19.68940119
H 19.94503092 22.10630211 18.45692640
H 17.33974260 18.50261128 17.35738298
O 17.24550118 18.20776983 16.42284060
O 21.21634133 20.92931914 18.03079730
O 19.62838022 19.60620156 20.15126097
O 16.53184088 21.65213103 18.29376104
O 16.85834045 19.86370788 20.38103033
O 19.72062247 20.37098407 15.00304759
O 19.13296049 22.67220120 18.70424774
21
i = 0, time = 0.0, E = 0.0;
H 17.60936496 20.12082040 16.90189920
H 20.65321702 18.57714247 17.13121961
H 20.71309104 19.13858390 18.48464830
H 19.78651603 18.78779395 20.62158454
H 19.11636554 20.15801174 20.02589112
H 16.06901355 20.07732052 18.28452499
H 15.08590094 20.47702825 19.43658282
H 17.19385512 21.47323922 19.39226759
H 17.91307119 22.67929916 19.95415507
H 20.35569872 21.62151029 18.08869131
H 21.26370073 20.76251112 17.21711810
H 18.92327793 21.86346120 16.42074288
H 17.83872606 21.91791622 17.53807635
H 17.90918507 18.66110884 17.37470493
O 17.15868271 19.28482689 17.31267916
O 21.34054750 18.86125448 17.77728357
O 19.50020882 19.27507962 19.84034795
O 15.65619307 20.85954601 18.81427638
O 18.10261160 21.81750004 19.55695223
O 20.63556617 21.55305923 17.18701276
O 17.93884420 21.70659778 16.58965843
21
i = 0, time = 0.0, E = 0.0;
H 18.93854802 18.81181883 17.02422510
H 21.75561540 22.67753480 17.52804832
H 21.07351365 22.04142772 18.76428503
H 20.60320116 21.88880077 21.01111476
H 19.50024487 21.00205723 20.47665863
H 15.14098211 17.56217173 17.95345323
H 16.50946006 18.20805324 17.62259191
H 16.39538033 20.65801012 20.33368603
H 17.16851989 21.14264042 19.14866920
H 20.42417950 20.34388177 15.41921960
H 19.81296093 20.87061750 16.68965813
H 18.80239075 22.65552623 17.59881313
H 18.08272718 21.60570260 16.69548459
H 18.51717783 18.53703521 18.46141412
O 18.36171278 18.16602035 17.53989092
O 20.87043929 22.39251090 17.85662143
O 20.46222429 21.05419832 20.54471139
O 15.56553959 18.46803522 17.75684731
O 17.30798243 20.72732119 20.09579517
O 19.64764808 20.24689112 15.96650721
O 17.97258174 22.19643985 17.45296696
21
i = 0, time = 0.0, E = 0.0;
H 19.46154173 19.47490316 16.42106625
H 21.09329179 21.42922898 16.50119879
H 20.35864679 21.01740994 17.85715485
H 19.72827206 21.87590290 19.25839548
H 19.61515383 20.38888961 19.73816337
H 17.69522596 18.08010619 17.80674950
H 16.20816783 17.90066406 18.26684271
H 17.62416818 19.09915930 20.03165485
H 17.37831145 20.43280152 20.83196032
H 16.91748667 20.92332148 16.26344261
H 18.40656277 21.42653419 16.57640258
H 17.95761275 22.83390096 17.72847531
H 18.52349569 24.07464804 18.49818580
H 18.82030231 18.11159036 16.02798278
O 18.85115318 18.77454708 16.71648408
O 20.29449812 21.02401957 16.80696233
O 20.29527965 21.09076721 19.46216839
O 17.12813325 17.83573225 18.63098129
O 18.05458806 19.73997775 20.65933705
O 17.43930753 21.71858792 16.49325279
O 18.31018970 23.12677055 18.62810366
21
i = 0, time = 0.0, E = 0.0;
H 17.45511748 20.06258813 16.42331059
H 21.75650457 18.36921617 17.90629461
H 21.08469886 19.57703554 18.53795584
H 21.21492116 20.22431905 21.26277881
H 19.76244565 20.35482624 20.32765080
H 16.09037661 20.04769389 18.24417642
H 16.01788067 19.24215825 19.58887072
H 17.40268217 20.77134645 19.56195104
H 18.02015543 21.73232075 20.66988036
H 19.57430639 19.56965462 15.20734430
H 19.74518192 19.58333955 16.70727448
H 18.44903515 22.10456438 18.05646385
H 19.21706222 22.14453505 16.77245874
H 16.47090780 21.33474768 16.79754797
O 16.48910337 20.34878034 16.69901310
O 21.08235731 19.05674075 17.70707297
O 20.71643860 19.96082062 20.42354736
O 15.88945657 20.12899741 19.21586999
O 18.26089980 21.32608269 19.82622944
O 19.14908080 19.90833742 15.96669763
O 18.63000199 22.70354585 17.29069651
21
i = 0, time = 0.0, E = 0.0;
H 18.21434390 19.88083180 16.96718353
H 22.22034277 21.25344375 16.98378496
H 21.35669479 20.50597395 18.11615576
H 20.80588915 21.49751246 20.15073719
H 19.42820679 21.10378317 19.74270518
H 16.81558532 17.14896909 20.02169743
H 16.38889288 18.15355388 18.81209621
H 17.02825120 20.28302690 20.66252016
H 17.39416086 20.25385095 19.18022147
H 19.34039809 21.53515286 15.57776341
H 20.24091537 20.62889015 16.59344654
H 18.23953391 22.20049894 17.10303450
H 17.53171764 23.39613109 17.82723136
H 16.73327859 19.92660030 16.88934662
O 17.44140392 19.57359392 17.51585976
O 21.83648844 20.36831321 17.26338584
O 20.34623429 21.24574578 19.36820505
O 16.11298522 17.71646152 19.69330269
O 17.68150242 20.60873113 20.07170807
O 19.32169497 20.88967314 16.28292392
O 17.50998435 22.86383388 17.02421750
21
i = 0, time = 0.0, E = 0.0;
H 17.25257747 16.39911550 17.55065174
H 21.69527145 20.48544248 19.88197670
H 20.13078586 20.55210838 19.70221079
H 18.69893532 18.72234930 18.90908678
H 17.81601296 19.84198143 19.38320511
H 16.62839888 19.94432745 17.23962851
H 15.18755959 20.15164993 17.83273904
H 19.64081490 22.76680796 20.04960311
H 18.16391938 22.63773726 19.90684014
H 20.02386146 22.70628575 17.05358689
H 20.72874567 21.69718873 18.01308819
H 18.82682657 21.18778336 16.50477020
H 18.58617371 20.24245635 15.35181052
H 16.65687232 17.88684472 17.81414025
O 17.46547514 17.33410888 17.65523413
O 20.92743094 21.12856591 19.65020971
O 18.80643380 19.54623024 19.45440602
O 15.83652952 19.45871511 17.58014677
O 18.88150811 23.31282387 19.85701068
O 20.34776076 21.78554329 17.06384294
O 18.09235372 20.86078216 15.92312928
21
i = 0, time = 0.0, E = 0.0;
H 19.08898685 18.17298171 17.97950026
H 21.91673071 20.98306871 17.02306274
H 20.89831311 20.64938595 18.22081907
H 19.34231119 20.43508600 20.00131815
H 20.89211278 19.84513889 20.39831979
H 15.59503436 19.76066554 18.15542148
H 16.84498551 18.85933301 18.37897859
H 18.10880111 21.67570124 19.68180428
H 17.22910157 20.35223345 19.85445522
H 19.66059937 21.08640609 16.05973447
H 18.73813129 20.80237966 14.80088606
H 17.75309014 22.03218163 17.33202176
H 18.32855503 23.29514003 18.06681993
H 18.56942858 18.96538013 16.80593806
O 18.33419129 18.22241024 17.36284880
O 21.01605579 21.09459775 17.30449659
O 20.27952180 20.07324140 19.62274063
O 16.20922308 19.43804703 18.84831942
O 18.01558199 20.89007097 20.31037531
O 18.67442662 21.02006877 15.75454181
O 17.64392605 22.58166745 18.13402484
21
i = 0, time = 0.0, E = 0.0;
H 16.95560219 19.87807127 16.01378261
H 21.21599436 21.98041268 18.56450593
H 21.38121004 23.03233891 19.68671662
H 19.23264877 19.42241467 20.59918974
H 19.06501280 20.84140098 20.14184196
H 16.20412154 18.54861704 18.16992048
H 15.62786836 17.25113741 18.29769856
H 17.67545149 21.92279145 18.54423629
H 19.03227473 22.44795343 18.88546982
H 20.83627053 19.14662570 17.60017918
H 20.19107075 19.93655204 18.64426869
H 18.49620249 22.30519771 16.17313579
H 19.32045185 21.06967896 16.48772584
H 15.64601965 19.02197203 15.55871505
O 16.41440751 19.06563332 16.24450246
O 20.77463586 22.84908578 18.91997598
O 19.81422343 20.17018736 20.40571084
O 16.22412602 17.80971810 18.81435856
O 18.20727724 22.08278667 19.38515129
O 20.31780349 20.00302066 17.63504259
O 18.55187817 21.34659699 15.89427994
21
i = 0, time = 0.0, E = 0.0;
H 18.57903568 19.99418137 15.80572937
H 20.95107930 22.56523406 18.61532327
H 20.93530319 21.00697683 18.30009068
H 19.71201886 18.92651399 18.94866939
H 20.90310196 19.17679902 19.87032479
H 17.53011505 18.73166923 17.77466256
H 17.59241969 17.54172330 18.82288939
H 17.99878007 21.09500067 17.88860621
H 18.48019737 22.37309306 18.61173034
H 20.34842250 21.43358043 15.00914080
H 19.87526512 21.73850592 16.46747108
H 15.73044060 21.62527348 20.67040455
H 16.72429320 20.38486695 20.68735419
H 17.08951685 19.48049600 15.55773150
O 17.83843121 19.43914290 16.18812421
O 20.74909628 21.95338241 17.85115449
O 20.53120416 19.47183693 18.99811489
O 17.68501413 18.52350901 18.75922988
O 17.79689648 21.72764756 18.70115685
O 19.57034954 21.36320490 15.58563699
O 16.03445696 20.89437678 21.23685292
21
i = 0, time = 0.0, E = 0.0;
H 17.39269956 16.04135865 18.52806166
H 21.53932487 20.96981398 20.49097595
H 21.93708321 22.39568174 20.47931510
H 19.76055122 19.47065361 18.38632021
H 18.39449185 20.17554090 18.46062557
H 16.19539992 18.11873617 18.30112632
H 16.12547526 19.43096672 19.00137738
H 18.22041449 21.29846986 20.00000731
H 17.82549159 22.44040677 18.97392952
H 19.78017511 20.41501432 16.22585760
H 21.12548249 20.89202803 15.92513392
H 19.02814417 23.06475895 17.03826377
H 20.01755562 24.20635068 17.13545431
H 17.96795572 17.46067553 17.93656296
O 17.51018385 16.61571371 17.71356399
O 21.36622921 21.80117402 19.93738655
O 18.83053189 19.38273571 18.05331357
O 15.52881229 18.74556278 18.70019944
O 17.55457674 21.55673294 19.38264665
O 20.19904128 21.24381774 15.98457526
O 19.03586613 24.00805027 17.30583800
21
i = 0, time = 0.0, E = 0.0;
H 18.82601960 18.74905858 17.86623308
H 21.04904253 21.63612778 18.23005208
H 22.22794946 20.67861468 17.79602672
H 20.43034333 19.02359831 19.04494086
H 19.09879282 19.42623896 19.78122642
H 15.74699916 20.57893172 16.83280422
H 16.48499150 19.59042922 17.52855175
H 17.71061770 20.67386982 21.24913703
H 17.99722879 21.48329759 19.80033076
H 18.74948839 20.32974448 16.37391403
H 19.95634110 21.30262000 16.22975955
H 17.14583012 21.97048585 18.12034280
H 18.30271969 23.03587225 18.05302279
H 19.10463125 18.17294144 16.43508453
O 18.41734865 18.72725910 16.93037617
O 21.30402420 20.71763330 18.01580685
O 19.47735929 18.71417490 19.22163168
O 16.07074767 20.46075969 17.71217439
O 18.31847499 20.71624325 20.48162771
O 18.99461221 21.32309114 16.28254401
O 17.59887690 22.67752810 18.65649640
21
i = 0, time = 0.0, E = 0.0;
H 17.93898822 17.97397011 17.05078859
H 20.31433148 20.34330970 18.51577138
H 20.78271922 20.58485123 17.08531915
H 21.14180768 21.03487736 20.57499860
H 20.03215576 21.96530885 20.00132959
H 16.81073150 20.29108231 20.01018301
H 17.09450366 19.30893184 18.62318311
H 17.89634801 22.49724004 18.91506111
H 18.26142793 23.42385603 20.06174286
H 18.46697383 19.33089089 15.12253823
H 19.54949940 19.09508228 16.06854091
H 16.66869926 21.18844032 18.21956192
H 17.30645087 21.59723155 16.80044316
H 18.81024010 19.00156757 17.88075686
O 18.12293619 18.33093077 17.96678923
O 20.19182634 20.07858830 17.57565940
O 20.99091374 21.69044590 19.78619788
O 16.51030092 19.96220239 19.13803153
O 18.41981837 22.57317891 19.74402210
O 19.07193626 18.62864226 15.36243499
O 16.98435444 22.01065411 17.62742195
21
i = 0, time = 0.0, E = 0.0;
H 15.51978476 18.47497744 16.89095166
H 22.11795943 22.51542139 18.63560142
H 21.80961546 23.15737994 17.14273745
H 19.80593461 19.23699384 19.30248368
H 20.95488654 18.42573129 18.58449935
H 16.67660597 21.99535891 18.70598064
H 16.43893118 20.96369389 19.86318254
H 19.12028485 21.29337324 19.40181290
H 18.95160710 21.16980163 21.01732437
H 19.09321119 19.25490095 16.76993158
H 17.60819378 19.35647404 16.32300574
H 18.64768131 21.05143917 17.17386850
H 19.57180713 22.20245175 17.61194546
H 15.99526002 19.58503510 17.94820974
O 16.25881895 18.70299886 17.53893341
O 21.42989858 22.64792226 17.94098467
O 20.01550472 18.59961463 18.50926312
O 16.15809323 21.16989751 18.98829719
O 19.01613006 20.59928666 20.15445269
O 18.55134923 19.71946003 16.14480528
O 18.78436277 21.76953582 17.89601607
21
i = 0, time = 0.0, E = 0.0;
H 17.56625444 18.60346850 16.04882942
H 20.52780559 23.38959634 18.49260798
H 19.83810980 22.11171928 18.96533149
H 20.79597896 20.06378196 20.33638028
H 19.40253278 20.40257668 20.81536724
H 16.60567629 20.37125106 18.67110498
H 17.10234235 19.08899137 18.04778311
H 17.42735317 19.05121408 20.30385051
H 17.26676544 19.48194469 21.89180218
H 20.54579504 20.89735590 15.21366182
H 20.21525466 21.43595756 16.72891951
H 18.09771207 21.39734921 16.00959425
H 16.93402827 22.40115623 16.32274537
H 18.90539800 19.21401466 16.49178518
O 18.22383724 18.54918421 16.79641080
O 19.89618707 22.69444652 18.18867622
O 20.21984225 20.83532348 20.42716194
O 16.69428233 19.44397776 18.92036588
O 17.94248363 19.34757616 21.12179673
O 20.09107517 20.66351661 16.08892570
O 17.21454176 21.72337132 15.69442079
21
i = 0, time = 0.0, E = 0.0;
H 18.87309482 18.57153080 17.52885044
H 21.70941314 21.49026984 19.37619458
H 21.08393479 20.22727969 18.69830792
H 20.47773652 17.90790855 19.72126604
H 19.41384044 19.02506890 19.59892271
H 16.29595962 19.33096623 17.71550577
H 16.19987048 20.77559131 18.00120918
H 17.57153108 19.78869724 19.76252487
H 18.56324902 20.91549120 19.50244997
H 20.22248017 23.49474567 16.93691763
H 19.92969655 22.06053722 17.60188637
H 18.04031975 22.37750247 17.05615454
H 16.73395920 22.31516655 16.07946779
H 18.34644689 18.64690996 16.01516554
O 18.04727298 18.48080388 16.93414941
O 21.04204516 21.21031540 18.69476247
O 20.12858446 18.55931298 19.09855126
O 15.92550300 19.90182973 18.41972692
O 18.32012555 20.25792186 20.15360824
O 19.59164061 22.76061029 17.01610577
O 17.08654580 22.14851665 16.96778816
21
i = 0, time = 0.0, E = 0.0;
H 17.18532918 20.49361149 17.60254816
H 21.25362207 20.72794413 15.19377575
H 21.19910016 21.05592715 16.77161510
H 22.07848076 20.33609095 18.68118598
H 20.66901769 20.95680819 18.92776317
H 15.55929570 19.09519865 20.65404281
H 15.83592617 19.63927727 19.17590918
H 17.62241505 20.77763166 19.82655290
H 18.41747715 21.68251919 18.91872901
H 18.57817586 19.04414816 19.07166524
H 18.20195183 17.59821875 19.35126737
H 18.35544399 22.78806086 16.08585709
H 19.33123462 21.67256040 16.36179106
H 15.92862528 20.31176491 16.66806812
O 16.39042048 19.86088013 17.46399269
O 20.74745687 21.17371464 15.86686763
O 21.47539986 21.09494195 18.40119223
O 15.89431040 19.86551846 20.13338243
O 18.47524058 21.20515763 19.75187487
O 18.91657330 18.11692723 18.95480213
O 18.44679137 22.04929165 16.73173676
21
i = 0, time = 0.0, E = 0.0;
H 18.09948897 19.68577603 16.87721815
H 20.23251510 22.71935070 19.02387723
H 20.52171992 21.13875071 19.31048490
H 19.87723971 19.14053135 20.10673369
H 18.88741934 20.29435573 20.29750122
H 14.68274182 18.64111980 19.83122000
H 15.34457776 19.19643212 18.53482847
H 16.91986962 20.14292668 20.35458532
H 17.27106503 20.69549546 18.96166644
H 20.05989353 19.22262053 14.99328608
H 20.13121255 20.59278431 15.75954799
H 20.62799134 22.06881626 16.95439245
H 21.03812992 23.08283670 15.71068053
H 17.36147918 20.92262995 16.90968575
O 17.29370097 20.07919055 17.30737910
O 20.79020190 21.95194944 18.75652827
O 19.79284900 19.94330589 20.52560513
O 14.85558254 18.40597455 18.90723515
O 17.21051854 20.96003888 19.91932631
O 19.85446551 19.64850361 15.89736169
O 20.49599850 22.29148952 15.96931073
21
i = 0, time = 0.0, E = 0.0;
H 18.20950278 17.47496667 15.84544486
H 20.08089347 22.50418584 16.99269288
H 20.05400033 22.05606719 18.43534167
H 20.18999181 20.87909748 20.36145456
H 18.93075157 20.57194439 19.54910910
H 16.16241323 18.22302385 18.08648702
H 16.94651026 18.93484269 17.03094643
H 16.73214659 20.23826422 19.13350445
H 17.29359696 21.67168895 19.34951652
H 20.80116533 19.04545300 18.32201531
H 21.72222071 18.42891638 17.20429435
H 18.46531226 23.15508016 18.28732191
H 16.95047329 23.30957059 17.68118995
H 19.25871578 18.09756571 16.70363668
O 18.33233395 18.28186048 16.34244456
O 20.05789151 22.91809225 17.87657786
O 19.94220914 20.72429470 19.44432737
O 16.29190736 19.11079620 17.71904866
O 17.26398550 20.77982318 19.75627883
O 20.88360990 18.31825391 17.68992191
O 17.47460857 23.33343019 18.49464309
21
i = 0, time = 0.0, E = 0.0;
H 19.16036209 19.36474462 17.27749223
H 21.05348353 21.78642917 19.14829170
H 20.83602858 20.38195946 18.62354437
H 19.61582788 19.01330897 19.86417151
H 18.54552647 20.05525165 19.22278958
H 15.92319222 18.39018426 18.31830666
H 15.34649703 17.90566107 19.60302099
H 16.54747000 20.36327126 19.96234066
H 17.17644386 21.62153776 19.41628340
H 20.32437676 20.82470413 16.23965775
H 20.92832184 22.00191048 16.96512629
H 18.30578845 22.35939545 17.29070888
H 17.10636180 21.60117225 16.96233496
H 19.81023290 18.30862783 16.35672801
O 19.25394717 19.17036983 16.29256617
O 21.49243495 21.13370182 18.58997775
O 19.23261001 19.35304765 19.02240019
O 15.52437828 18.72859159 19.13510388
O 17.19813657 21.06746418 20.22685995
O 20.21169137 21.79567492 16.34411777
O 17.40377215 22.25629135 17.56933368
21
i = 0, time = 0.0, E = 0.0;
H 18.02988091 18.93731461 18.01617969
H 20.44348543 21.38428111 17.22575778
H 20.11530458 22.68533292 16.40937103
H 19.48233921 17.80625301 19.57891449
H 19.45970631 19.50627764 19.56892538
H 16.22646258 20.06243838 17.39974676
H 14.77608058 20.59921540 17.73428449
H 20.32770740 21.47162644 19.41715605
H 18.91834335 21.33294222 19.93100483
H 20.60194846 18.96290608 17.73243507
H 20.70472731 19.11357521 16.14242812
H 17.86020351 23.16640074 18.46433341
H 16.73503282 22.03760725 18.17415739
H 17.12928938 17.93671725 17.03395663
O 17.13366404 18.72432226 17.65885445
O 20.00982215 22.30794472 17.28552623
O 19.30365258 18.59741108 19.00667278
O 15.65266027 20.92717767 17.40524675
O 19.83682054 20.93177365 20.09382306
O 21.07634931 19.49402206 16.98382677
O 17.29577342 22.45792791 18.89901407
21
i = 0, time = 0.0, E = 0.0;
H 17.39320089 19.00161490 17.00067326
H 20.51673315 22.95105871 17.27999914
H 21.71603355 21.95855920 16.84953017
H 20.83085947 18.43654187 19.28851582
H 20.65153005 19.76682274 19.84086933
H 15.60655728 20.45064553 17.82899506
H 14.70936934 21.64675339 17.23323533
H 18.71457565 20.89437051 20.06539973
H 18.53025736 19.69846007 21.17741687
H 19.68542299 20.32417723 16.54865415
H 19.72107624 19.17657405 17.68917097
H 18.81254734 21.37039413 18.26855163
H 17.42931549 22.05251859 18.56287070
H 16.20470044 17.98745505 17.30863833
O 16.39932848 18.88309078 16.97433167
O 20.70210925 22.16632408 16.72232852
O 21.33987887 19.23211428 19.39410685
O 15.41639479 21.42614435 17.97427690
O 18.95317407 19.92797341 20.33594547
O 19.10014656 19.61910818 17.05328303
O 18.41587638 22.14089885 18.74550957
21
i = 0, time = 0.0, E = 0.0;
H 17.72467557 19.18081663 17.07851985
H 21.72588865 19.05016924 18.39020032
H 20.62230300 19.69213986 19.16913927
H 18.45355058 19.96598130 20.50310464
H 19.17161974 18.55603549 20.75279258
H 16.51978140 21.48600731 17.24072260
H 15.26278334 20.91562855 16.51229618
H 16.46502600 20.31292744 19.23761403
H 17.40628312 21.37719097 19.41256848
H 20.08257535 20.79749145 16.24810666
H 20.94017231 21.17651045 17.32506803
H 18.94191895 22.06064314 17.36671534
H 18.19530900 23.28239921 17.70623255
H 19.22537819 19.22758514 17.49234149
O 18.57441924 18.67889729 17.01144444
O 21.09061627 19.79319414 18.34127178
O 19.30970493 19.46132992 20.38935789
O 15.97978481 20.69699113 17.20773626
O 16.95290169 20.70679163 20.00624019
O 20.40006049 21.66876158 16.57969157
O 18.00586972 22.30365129 17.69598911
21
i = 0, time = 0.0, E = 0.0;
H 19.45197645 19.54674628 17.03694787
H 19.38987882 22.65187344 19.03500148
H 20.10865698 24.11777850 18.81077060
H 21.22231875 18.26926587 20.65101373
H 20.22097498 18.56373559 19.51338780
H 16.06935597 17.90449366 16.37178531
H 17.36200819 18.56012220 17.01690064
H 17.61066253 21.02469868 20.70069605
H 17.15788041 21.02363502 19.30352606
H 20.48269487 21.46547975 15.32829364
H 20.11855839 22.16573150 16.71281494
H 16.03777726 20.18951214 17.52464813
H 15.89943810 21.56837215 17.11725292
H 18.78321108 19.48474631 18.43102815
O 19.11190647 18.90125908 17.69316366
O 19.90267591 23.27395948 18.46463278
O 20.69150158 18.97452558 20.23799688
O 16.42153248 18.67153577 16.86672451
O 18.02262633 21.14814666 19.82351729
O 20.18470681 21.28198257 16.27482490
O 16.03018877 21.09256611 17.92640000
21
i = 0, time = 0.0, E = 0.0;
H 16.87223212 19.96615029 19.01776056
H 20.30101091 17.55865117 18.37650555
H 21.06859964 18.71124738 18.95115884
H 20.63157154 20.96861931 20.25909145
H 19.17648480 20.33594468 20.03471590
H 16.28337415 20.61966783 16.76577910
H 16.11049972 21.27951158 15.35961636
H 17.13841174 21.79905693 20.28059027
H 17.98557574 21.77983065 19.07380949
H 20.97506369 20.63243480 16.66949604
H 20.14654319 19.55311448 17.30913793
H 19.19682652 21.60361825 17.37484586
H 17.84593146 22.21864277 17.08094159
H 15.38331314 19.46589524 19.00493821
O 16.16460466 19.57997020 18.40405657
O 20.97715825 18.18504292 18.10375000
O 20.15399884 20.15777139 20.06930619
O 16.50760731 21.43196048 16.24911617
O 17.89919350 21.33906647 19.97300238
O 20.07542800 20.29923487 16.62769467
O 18.63754805 22.35368886 17.73405402
21
i = 0, time = 0.0, E = 0.0;
H 19.86925201 18.87534500 16.28735598
H 21.29018516 19.86641141 17.83740522
H 20.14295139 19.01707804 18.56992617
H 18.59186267 18.08489534 20.01390737
H 18.60328631 19.44196696 19.77033276
H 17.40702197 20.23934933 16.29542684
H 17.74216605 21.73398641 16.67598133
H 16.17190670 20.43751484 19.60199009
H 17.02762402 20.61543110 18.28058163
H 18.48487991 22.85054891 18.32886449
H 19.83703759 22.62003731 17.86456108
H 17.68016747 21.88034996 20.14291502
H 17.79920327 23.31614794 20.76522867
H 19.26029373 18.01288037 15.25646826
O 19.05850376 18.78741166 15.76766815
O 20.84875386 19.02520842 17.83942857
O 19.21918326 18.79806903 20.13003826
O 16.97905387 21.07844445 16.61495065
O 17.05378367 20.19656646 19.21471622
O 18.96831234 22.74595060 17.45185228
O 18.23802350 22.68361046 20.13397422
21
i = 0, time = 0.0, E = 0.0;
H 19.40604200 19.05302855 17.52129617
H 20.02722561 21.78364748 16.60522158
H 20.87086684 22.22829737 17.85709958
H 21.00972840 21.64220069 20.44475680
H 19.77237322 21.48653707 19.60346435
H 17.80760557 18.38708274 18.58736996
H 16.71953548 17.74867956 19.50251127
H 17.21560613 20.34353798 19.92829044
H 17.40591375 21.55980031 20.93833590
H 17.65231680 21.01735053 16.12336232
H 18.64880918 20.41085208 15.22279768
H 15.36826892 21.34108247 17.29326848
H 16.14693305 19.99390751 17.54326266
H 19.82244689 19.11927796 19.09360217
O 19.52584830 18.52476816 18.38510693
O 20.77762856 22.42038071 16.93615147
O 20.77293468 21.36720920 19.53340705
O 16.89080685 18.62185438 18.95756474
O 17.92168611 21.02281352 20.28084089
O 18.60192177 20.70293958 16.13508853
O 16.00294849 20.71052857 16.88832374
21
i = 0, time = 0.0, E = 0.0;
H 19.80409727 18.76892384 17.16075611
H 20.43522745 20.46698924 19.77426543
H 21.31765599 21.73991022 19.74566499
H 19.00082770 19.30315620 21.31554124
H 18.11347709 19.81546265 20.17384140
H 17.18839270 19.63615665 16.46071429
H 16.21952491 20.80121921 16.48625725
H 15.79452431 19.88260873 19.99957955
H 16.28834318 19.56033741 18.47447334
H 19.20935974 21.71819049 16.84259218
H 20.67247356 21.95537458 16.60325825
H 17.77239090 21.40941590 18.75778158
H 19.28692326 21.80563637 18.86637820
H 19.57716261 19.95655316 16.33834931
O 19.15884100 19.11837611 16.53440000
O 20.79688213 21.18061025 19.10830211
O 19.11369067 19.71698172 20.46767524
O 16.42940341 19.92372441 16.91977232
O 16.56196015 19.55744832 19.47298414
O 19.88503080 21.71788704 16.13714864
O 18.37113290 22.11107041 18.42990471
21
i = 0, time = 0.0, E = 0.0;
H 18.15446178 20.08318875 16.24818695
H 20.71948848 19.38676923 18.46836193
H 19.97680577 19.60216999 19.78211535
H 18.85978848 17.94310022 18.01750178
H 17.26922171 17.75602516 18.45895982
H 16.76291324 20.90147535 17.31935721
H 15.70549149 20.76443024 18.47546172
H 20.47292252 21.54724122 21.90490978
H 19.95420942 22.21936616 20.63011983
H 19.12258816 22.05557852 15.97654208
H 19.38949551 21.72399178 17.35222957
H 17.86429366 22.14707719 19.00859178
H 18.05891909 23.68803589 18.75177329
H 17.36084979 18.76273823 16.39955346
O 17.31889435 19.65104670 15.92175031
O 19.95927778 19.01993645 18.99363055
O 17.93994098 17.54088130 17.73371939
O 16.46971440 21.32573500 18.20934767
O 20.51466393 21.45038426 20.92656675
O 19.63090911 21.32794386 16.44823959
O 18.54710720 22.89920481 18.84989838
21
i = 0, time = 0.0, E = 0.0;
H 18.96988863 18.54128310 18.79604824
H 20.68656226 20.35240514 18.60836614
H 22.06802016 20.12763527 17.91762246
H 20.11890756 19.74980192 20.78520708
H 19.22680992 20.75616543 20.02189617
H 15.84183373 21.01460828 18.21152238
H 16.00274850 19.64042314 18.94233042
H 17.16184495 21.50499549 19.76324549
H 18.10349952 22.08162663 18.71632723
H 19.57001903 20.42646372 14.86677780
H 20.07020959 20.69955118 16.31960794
H 17.98697633 21.53025257 16.46396345
H 17.58595401 22.95102652 16.44036661
H 19.14440968 18.10571075 17.31012816
O 18.65445868 17.85682084 18.08760634
O 21.28570287 20.67686590 17.84309969
O 19.84292394 19.96426586 19.83709481
O 15.58306414 20.55301694 19.07464358
O 18.16018735 21.75318749 19.65821348
O 19.30053290 20.33785815 15.82087529
O 17.37305380 22.14237357 16.99033981
21
i = 0, time = 0.0, E = 0.0;
H 17.81495809 20.31866722 16.34108411
H 20.99001356 20.43213373 18.37964896
H 21.45346516 21.72682102 17.51778905
H 20.24438026 19.97893420 20.53511420
H 21.78023704 19.95320782 20.71185855
H 16.26674818 19.13376577 18.11016806
H 17.75666004 19.12905937 18.13828193
H 17.87632545 20.72426009 21.08070081
H 17.66469345 19.41530576 20.40265326
H 19.39816964 22.54097165 15.61861444
H 19.46584987 21.74930553 16.97069543
H 16.73049310 22.30928797 17.14961992
H 15.32610226 22.22120146 16.59555658
H 19.14216252 19.53461319 16.43432911
O 18.17903279 19.42408752 16.28140778
O 20.84404980 20.93998134 17.51393269
O 21.09776091 19.84432643 20.01296025
O 17.02934736 18.82710133 18.68594457
O 18.28390248 19.86863463 21.03751851
O 18.93295809 22.49039656 16.52208587
O 15.87240248 21.78366240 17.20618971
21
i = 0, time = 0.0, E = 0.0;
H 17.99491802 18.67844170 16.35407966
H 21.30839496 21.73648247 18.59270157
H 21.09158901 20.23054994 18.48183206
H 19.44424621 18.50148003 18.37415921
H 19.26619498 19.65662194 19.34296340
H 16.11935716 20.72857530 19.89973755
H 15.31230363 21.60746828 18.86182530
H 17.87822964 21.64792143 20.05767606
H 18.71227248 21.14994902 21.26514310
H 20.17883223 21.79065829 15.13472749
H 20.60958487 21.24374849 16.56949919
H 17.18308235 22.52452833 17.33469215
H 18.37139959 21.82205195 16.64761484
H 17.05027947 18.24086036 17.42336324
O 17.94705599 18.04243735 17.11353314
O 21.45611935 21.03867522 17.98751265
O 19.99639505 19.03502140 19.01834842
O 15.29316108 21.20731047 19.74523353
O 18.33534993 20.86593563 20.38434665
O 19.83346695 21.30264975 15.91194684
O 17.46545422 21.66147529 17.07682100
21
i = 0, time = 0.0, E = 0.0;
H 14.76606066 16.56001664 17.43693212
H 22.98358506 23.92363443 18.14016664
H 21.59185838 23.59568974 18.78551230
H 19.61851989 21.02857546 20.14187416
H 19.04038389 22.55416276 19.90751116
H 15.96022219 19.60429088 18.66124316
H 16.77464911 19.92847434 17.38113045
H 17.87748834 19.42044406 19.58377923
H 18.01122415 19.34358353 21.18411648
H 20.36517286 21.35816857 17.73423833
H 20.73081897 22.41197416 16.67621802
H 18.61617028 20.71409633 16.18889907
H 17.36028913 21.56846388 15.67212906
H 16.11731177 16.93901664 18.03886939
O 15.52899005 16.14905483 17.90945643
O 22.02570371 23.89340672 17.90688725
O 19.89174572 22.04240854 19.95193016
O 16.62166283 19.23750178 18.07829301
O 18.53271039 19.54397107 20.35521390
O 20.16801197 21.61998666 16.83591860
O 17.60271727 20.70552890 16.12490411
21
i = 0, time = 0.0, E = 0.0;
H 18.74556753 18.82189264 17.46033614
H 17.50581048 21.30786017 16.73582466
H 17.77940050 22.72444684 16.79231033