3
i = 0, time = 0.0, E = 0.0;
H 21.53448998 22.25478431 23.06415128
H 20.33405973 22.59807197 23.97735859
O 21.27464031 22.81660282 23.78999775
3
i = 0, time = 0.0, E = 0.0;
H 20.68851740 22.43142139 22.48790085
H 21.26099337 23.65784984 23.21443105
O 21.15895651 22.68402718 23.29990672
3
i = 0, time = 0.0, E = 0.0;
H 20.74878589 22.43391515 23.54165568
H 21.14771295 23.81408585 23.48523011
O 21.51709502 22.97521402 23.24646224
3
i = 0, time = 0.0, E = 0.0;
H 21.07353028 23.11915874 22.61917054
H 22.07957599 22.21963387 23.32177671
O 21.17062146 22.61403325 23.47749324
3
i = 0, time = 0.0, E = 0.0;
H 20.72230492 23.75301774 23.59588750
H 21.37123466 23.18034659 22.25779027
O 21.22251633 22.97835886 23.21766733
3
i = 0, time = 0.0, E = 0.0;
H 21.81083587 23.06104068 23.05771847
H 21.44814457 21.86385935 23.94108146
O 21.10312127 22.69990655 23.59909227
3
i = 0, time = 0.0, E = 0.0;
H 20.57433507 22.96995930 22.55892212
H 20.23612313 21.99539713 23.61008598
O 20.89206492 22.68757435 23.45451088
3
i = 0, time = 0.0, E = 0.0;
H 20.67682182 22.97114230 22.45292669
H 21.55970638 22.26379917 23.56386703
O 20.81498890 22.87227042 23.43489754
3
i = 0, time = 0.0, E = 0.0;
H 20.83699520 21.75193520 23.16116613
H 20.58354555 23.00475469 23.98374425
O 21.05718856 22.69841009 23.18380887
3
i = 0, time = 0.0, E = 0.0;
H 21.87104053 22.16222159 23.31053329
H 20.53722276 22.57850287 23.76524942
O 21.38700747 22.99744349 23.55670317
3
i = 0, time = 0.0, E = 0.0;
H 22.18704799 22.10991314 23.35009487
H 20.69204072 21.91271779 22.74884282
O 21.29220568 22.57258972 23.25387061
3
i = 0, time = 0.0, E = 0.0;
H 21.27768158 23.71693049 23.79141349
H 21.75541862 22.35972961 23.20953283
O 20.94294180 22.90175906 23.30465012
3
i = 0, time = 0.0, E = 0.0;
H 20.95785384 23.73365257 22.76922254
H 21.73856008 22.83602206 23.80014039
O 20.85480787 22.94383516 23.31168595
3
i = 0, time = 0.0, E = 0.0;
H 20.47746498 22.12938422 23.65781663
H 20.46586831 22.81212852 22.38143591
O 20.85361763 22.93876277 23.25813150
3
i = 0, time = 0.0, E = 0.0;
H 21.55928355 22.57050059 22.86779289
H 20.24388699 23.17289766 22.51626142
O 20.63887220 22.64850707 23.22633130
3
i = 0, time = 0.0, E = 0.0;
H 20.26029077 22.60101659 23.51645270
H 21.54840522 22.70789972 22.53741584
O 21.07615867 23.08284693 23.28559044
3
i = 0, time = 0.0, E = 0.0;
H 21.16493070 22.49134772 22.23501746
H 20.64067842 22.30176386 23.71622457
O 21.32126503 22.81472886 23.13840839
3
i = 0, time = 0.0, E = 0.0;
H 20.33778307 22.71312178 22.72170904
H 21.66910026 22.25809516 23.39800258
O 21.10374414 23.01897896 23.28830061
3
i = 0, time = 0.0, E = 0.0;
H 21.97137292 21.88783957 22.93472498
H 20.75694319 22.30341862 22.18656811
O 21.08498503 22.30193983 23.09920355
3
i = 0, time = 0.0, E = 0.0;
H 21.14848700 22.43507989 23.81549995
H 21.93225581 23.46417421 22.97862545
O 21.10438901 23.00894216 23.01944929
3
i = 0, time = 0.0, E = 0.0;
H 22.00207273 23.24787489 22.74595970
H 20.92307564 23.30179784 23.77254200
O 21.16151755 22.76599804 22.99367273
3
i = 0, time = 0.0, E = 0.0;
H 20.78597784 21.70476046 23.36237434
H 21.21105086 22.87064360 22.49280876
O 21.09740487 22.67205416 23.45021238
3
i = 0, time = 0.0, E = 0.0;
H 20.86047946 23.34072128 23.69985940
H 21.57767359 22.04230422 23.65965074
O 21.31907501 22.72304326 23.04415484
3
i = 0, time = 0.0, E = 0.0;
H 20.29896228 22.19218801 23.52230496
H 20.52049510 22.96220719 22.30595801
O 20.95618517 22.87699074 23.18963898
3
i = 0, time = 0.0, E = 0.0;
H 20.65545413 21.99000903 24.37475428
H 21.54903280 23.08986240 23.62627076
O 20.93406221 22.34861055 23.51257481
3
i = 0, time = 0.0, E = 0.0;
H 22.22278133 22.82616692 23.15931929
H 20.82454813 23.04923367 22.56047131
O 21.25433349 22.53066421 23.28161987
3
i = 0, time = 0.0, E = 0.0;
H 21.03262134 23.11510785 24.29599953
H 20.46009175 22.81897892 22.87690996
O 21.09480920 23.42393122 23.29348086
3
i = 0, time = 0.0, E = 0.0;
H 21.41751292 22.78221090 22.99456652
H 20.07238922 22.27358195 23.63214619
O 20.73479182 23.03240625 23.64838817
3
i = 0, time = 0.0, E = 0.0;
H 20.19111936 22.79130251 24.00172899
H 21.26788171 23.85080742 23.62825104
O 21.05225852 22.94572278 23.52637167
3
i = 0, time = 0.0, E = 0.0;
H 21.05925324 22.11206510 24.11040563
H 20.53728738 23.49881130 23.90732771
O 21.05950990 22.82000055 23.46717645
3
i = 0, time = 0.0, E = 0.0;
H 20.97270679 22.09819288 22.92508952
H 21.98894014 23.07929861 22.90420182
O 21.12879784 22.95323948 23.31391989
3
i = 0, time = 0.0, E = 0.0;
H 20.48613708 22.49889807 22.13735442
H 20.59153089 23.09708389 23.57455732
O 21.11219729 22.61473666 22.88822737
3
i = 0, time = 0.0, E = 0.0;
H 20.73572883 23.80084310 23.18371254
H 20.16795544 22.51221291 23.86656295
O 20.93522348 22.85264902 23.29918949
3
i = 0, time = 0.0, E = 0.0;
H 20.91709663 22.10587711 22.93383300
H 20.13508716 23.34705491 23.55229203
O 21.03241016 22.91213329 23.40354121
3
i = 0, time = 0.0, E = 0.0;
H 21.60216306 23.88381001 22.96376473
H 21.77904258 22.65334636 23.93842841
O 21.10862523 23.08311969 23.40516082
3
i = 0, time = 0.0, E = 0.0;
H 21.57745055 22.79560322 24.16218320
H 20.70931404 23.49742918 23.19905935
O 20.85474005 22.59568990 23.58460362
3
i = 0, time = 0.0, E = 0.0;
H 20.99053647 22.18764462 23.08200868
H 21.38753082 23.74722555 22.92721088
O 20.99873596 23.05583173 23.53829594
3
i = 0, time = 0.0, E = 0.0;
H 21.84415651 23.50744064 23.44482977
H 20.71969487 22.39407696 23.80978245
O 21.03451157 22.99850977 23.05179610
3
i = 0, time = 0.0, E = 0.0;
H 21.60743871 22.20421143 22.94041983
H 20.89982500 23.37649706 23.68710310
O 20.99929452 22.99041916 22.80988589
3
i = 0, time = 0.0, E = 0.0;
H 21.16869696 22.04204019 22.59635436
H 21.26799705 22.44679959 24.07119095
O 21.22468814 22.84642643 23.15975499
3
i = 0, time = 0.0, E = 0.0;
H 21.07928458 23.19931873 22.31368014
H 20.82473104 22.30016154 23.54028511
O 20.69326590 23.20873304 23.22481074
3
i = 0, time = 0.0, E = 0.0;
H 20.30595362 23.20119136 22.79685937
H 21.78064631 23.23268839 23.26459960
O 20.95036625 22.72431520 23.41910377
3
i = 0, time = 0.0, E = 0.0;
H 20.41900581 23.48980112 23.23232835
H 21.82164463 23.09033305 23.40341624
O 20.96358579 22.70393130 23.27063041
3
i = 0, time = 0.0, E = 0.0;
H 21.98893329 23.19183519 23.32188621
H 21.07979259 22.92557547 22.16830344
O 21.14755602 22.76993709 23.15006172
3
i = 0, time = 0.0, E = 0.0;
H 21.02825944 23.21801378 24.04078205
H 20.54128107 22.66371823 22.65953026
O 21.17245288 22.51187707 23.38598281
3
i = 0, time = 0.0, E = 0.0;
H 20.46987683 23.55958171 23.29191048
H 21.70885030 22.82489450 23.75463526
O 20.88820586 22.61831765 23.20831571
3
i = 0, time = 0.0, E = 0.0;
H 21.58120785 22.50411099 22.79136081
H 20.60360922 23.62312894 22.50459486
O 21.05606542 23.19218536 23.26255547
3
i = 0, time = 0.0, E = 0.0;
H 21.46025099 23.19452198 22.67926143
H 20.09346092 22.79994706 23.02725467
O 20.97604897 22.70997584 23.39800682
3
i = 0, time = 0.0, E = 0.0;
H 21.59168812 23.38398524 23.78690121
H 20.35554852 22.62364095 23.61494676
O 21.08597236 23.01685617 23.04747172
3
i = 0, time = 0.0, E = 0.0;
H 21.52565104 23.75872812 22.82918348
H 20.42498524 22.80646527 22.34735755
O 20.96781354 23.03243923 23.12231183
3
i = 0, time = 0.0, E = 0.0;
H 21.09450886 21.86185969 23.15997911
H 20.32066391 23.11904491 22.79056838
O 21.14736166 22.83607974 23.20787039
3
i = 0, time = 0.0, E = 0.0;
H 21.41811687 22.90286429 24.44950442
H 20.08132643 23.19569460 23.82636371
O 20.99045296 22.90461276 23.57778376
3
i = 0, time = 0.0, E = 0.0;
H 21.61287299 23.75416288 23.59760893
H 21.75180578 22.95992890 22.31895406
O 21.32787374 22.91300743 23.22321759
3
i = 0, time = 0.0, E = 0.0;
H 21.28774900 22.87650037 24.39149804
H 21.43719081 21.99071320 23.18173299
O 21.30296004 22.93069379 23.43461428
3
i = 0, time = 0.0, E = 0.0;
H 20.20316323 23.02491453 22.82576442
H 21.81242653 23.13301009 23.10969612
O 20.96588268 22.75344657 23.37227451
3
i = 0, time = 0.0, E = 0.0;
H 21.07512732 22.04824534 24.03541609
H 21.34893367 23.51167797 23.70639228
O 21.06382493 22.68754610 23.25032037
3
i = 0, time = 0.0, E = 0.0;
H 20.82832531 23.04694225 22.49544653
H 20.98926623 21.76460020 23.24932169
O 21.10203489 22.73469704 23.37614175
3
i = 0, time = 0.0, E = 0.0;
H 20.59853626 22.00314456 23.71544278
H 20.46521486 23.44044701 23.30082325
O 21.14952982 22.69487545 23.29603239
3
i = 0, time = 0.0, E = 0.0;
H 21.30545424 22.08369904 22.67195832
H 20.32840506 23.20704788 23.04031885
O 21.11361076 22.70450527 23.37818882
3
i = 0, time = 0.0, E = 0.0;
H 20.58837932 23.26105842 22.74592055
H 20.74877329 21.78705966 23.37448108
O 21.13230445 22.71979184 23.35247539
3
i = 0, time = 0.0, E = 0.0;
H 21.85886481 23.03309724 23.74418870
H 20.88915485 21.93380419 23.81868678
O 21.04341426 22.72490881 23.26159385
3
i = 0, time = 0.0, E = 0.0;
H 20.52666177 22.14201678 23.87612478
H 21.77224221 22.99702830 23.83924612
O 21.07171032 22.71406309 23.25198603
3
i = 0, time = 0.0, E = 0.0;
H 21.46900270 22.63941229 24.15225677
H 21.60657013 23.30992533 22.83938011
O 21.02277712 22.66301147 23.29758413
3
i = 0, time = 0.0, E = 0.0;
H 20.66341496 23.40508888 23.76463503
H 21.80283364 23.16369651 22.93402931
O 21.06116695 22.62398381 23.31604255
3
i = 0, time = 0.0, E = 0.0;
H 21.11469249 23.46717349 23.82598275
H 21.74447108 22.11107182 23.62126433
O 21.03641176 22.68639174 23.26887888
3
i = 0, time = 0.0, E = 0.0;
H 20.32992856 22.27337318 22.98742337
H 21.50029996 23.23710167 22.67072814
O 21.10123872 22.69066155 23.38159895
3
i = 0, time = 0.0, E = 0.0;
H 21.30723324 21.76642198 23.57194460
H 21.88822528 23.08193629 23.40553275
O 21.01522386 22.73237750 23.29847622
3
i = 0, time = 0.0, E = 0.0;
H 21.87987835 22.76649948 22.81242678
H 20.41186474 23.19277313 22.83280023
O 21.07216149 22.66238552 23.38241325
3
i = 0, time = 0.0, E = 0.0;
H 21.93825120 22.33861561 23.69762664
H 20.63755802 23.13504467 24.02144790
O 21.05426419 22.69298101 23.25175269
3
i = 0, time = 0.0, E = 0.0;
H 20.99307877 23.64160649 23.30855469
H 21.35691777 22.54393148 24.21072908
O 21.06849129 22.64812991 23.26434029
3
i = 0, time = 0.0, E = 0.0;
H 20.73264046 23.52159094 22.98054345
H 20.64459907 22.41620697 24.12055059
O 21.12977881 22.66373850 23.29068789
3
i = 0, time = 0.0, E = 0.0;
H 20.79790348 22.98698909 22.44723040
H 20.36264116 22.59993959 23.91689806
O 21.14343145 22.68584465 23.33711964
3
i = 0, time = 0.0, E = 0.0;
H 21.36082727 23.59373471 23.33247987
H 20.23366488 22.65400608 22.92308202
O 21.11609104 22.64421089 23.34395975
3
i = 0, time = 0.0, E = 0.0;
H 21.95485591 22.90875827 23.57338545
H 20.85559987 21.89657300 23.80987568
O 21.03948055 22.73508836 23.27291025
3
i = 0, time = 0.0, E = 0.0;
H 21.30838930 23.55983874 23.70869127
H 20.17593216 22.46906300 23.30522422
O 21.12303222 22.65799861 23.29618048
3
i = 0, time = 0.0, E = 0.0;
H 20.18278005 23.08127492 23.33599949
H 21.77000604 23.25201873 23.58091320
O 21.09351711 22.63882072 23.30229205
3
i = 0, time = 0.0, E = 0.0;
H 21.03294123 21.89973502 22.91335430
H 20.87267711 22.60329531 24.20680225
O 21.09648886 22.75413451 23.28948687
3
i = 0, time = 0.0, E = 0.0;
H 20.16940110 22.47582695 23.36141457
H 21.17225050 23.35118954 22.66262701
O 21.13202098 22.67071818 23.35854643
3
i = 0, time = 0.0, E = 0.0;
H 21.41796300 23.39947140 23.84816078
H 20.99706706 22.95228998 22.44478929
O 21.06439391 22.63765719 23.34160415
3
i = 0, time = 0.0, E = 0.0;
H 20.43693115 23.31707105 23.01386606
H 20.64382310 21.84960414 23.35051573
O 21.14845855 22.71232228 23.33710367
3
i = 0, time = 0.0, E = 0.0;
H 21.37188193 21.92255498 22.90745717
H 21.81408759 23.07890252 23.78686751
O 21.01582171 22.72273165 23.31631598
3
i = 0, time = 0.0, E = 0.0;
H 20.28157915 23.03978650 23.77012027
H 21.44473691 22.17314199 24.01434446
O 21.10778561 22.70940814 23.24763284
3
i = 0, time = 0.0, E = 0.0;
H 20.51591513 21.97684679 23.41546561
H 21.62399853 22.56457916 22.52023301
O 21.08172733 22.75171544 23.36411238
3
i = 0, time = 0.0, E = 0.0;
H 21.43886363 22.58998017 24.19674728
H 20.62966083 23.48662644 23.26060728
O 21.08622513 22.65499301 23.26824207
3
i = 0, time = 0.0, E = 0.0;
H 21.09261618 23.54280494 22.93395866
H 21.94883004 22.50406633 23.65852180
O 21.02492724 22.65686646 23.32273255
3
i = 0, time = 0.0, E = 0.0;
H 21.73466679 23.35150511 23.25687522
H 21.28020400 22.12498011 24.05343528
O 21.02660159 22.69280302 23.27750643
3
i = 0, time = 0.0, E = 0.0;
H 21.24871582 22.17721243 24.10195649
H 21.85175790 22.85663491 22.83359852
O 21.02120827 22.72069095 23.30111751
3
i = 0, time = 0.0, E = 0.0;
H 20.22580474 22.75880030 23.71204816
H 21.51234434 23.57902229 23.40071949
O 21.10704009 22.63853539 23.28995241
3
i = 0, time = 0.0, E = 0.0;
H 21.14937007 23.69519329 23.21145772
H 20.45029457 22.48212231 23.98154926
O 21.11576515 22.64864795 23.28489701
3
i = 0, time = 0.0, E = 0.0;
H 21.18747828 22.37380243 24.17156793
H 20.86758672 21.94516386 22.84697399
O 21.08707314 22.76573128 23.29588900
3
i = 0, time = 0.0, E = 0.0;
H 21.08497211 21.92231018 23.83750672
H 20.21123708 23.03492698 23.32205143
O 21.13488404 22.72551770 23.28700443
3
i = 0, time = 0.0, E = 0.0;
H 21.04941903 22.56178897 22.37321777
H 20.44012815 23.27035099 23.66422638
O 21.12270299 22.67039537 23.35770202
3
i = 0, time = 0.0, E = 0.0;
H 20.30167017 22.26522993 22.97785485
H 21.86690129 22.18125924 23.15196205
O 21.07992178 22.75769683 23.35188218
3
i = 0, time = 0.0, E = 0.0;
H 20.72253034 23.52862885 23.02960551
H 20.51019539 21.94812528 23.36012269
O 21.13888375 22.69278607 23.33550674
3
i = 0, time = 0.0, E = 0.0;
H 20.58553996 22.06554710 23.82587581
H 21.26592414 22.27165279 22.50049527
O 21.09990079 22.76458248 23.33949849
3
i = 0, time = 0.0, E = 0.0;
H 21.55714863 23.53420111 23.34163779
H 21.07588113 22.48832666 22.43698078
O 21.05065907 22.65840019 23.37400907
3
i = 0, time = 0.0, E = 0.0;
H 21.53950106 23.02123359 22.55323538
H 20.40590931 23.31691583 23.52907513
O 21.09398181 22.63851479 23.35487527
3
i = 0, time = 0.0, E = 0.0;
H 20.58602737 22.56304148 24.10179792
H 20.51231879 23.00917946 22.66406569
O 21.14735019 22.68677130 23.31180874
3
i = 0, time = 0.0, E = 0.0;
H 21.63292376 22.89244325 22.57728312
H 21.59193082 22.47340770 24.02098086
O 21.01337179 22.69977341 23.32236817
3
i = 0, time = 0.0, E = 0.0;
H 21.04753214 22.01628259 22.65060912
H 21.93639236 22.89674158 23.52425069
O 21.02855132 22.72830328 23.34904429
3
i = 0, time = 0.0, E = 0.0;
H 21.78123845 22.11250551 23.49968468
H 21.35945809 23.40810622 22.78054429
O 21.01867408 22.69002288 23.34240563
3
i = 0, time = 0.0, E = 0.0;
H 20.22259425 22.45228179 23.63977742
H 21.66527899 22.44932847 24.03619139
O 21.09760687 22.72902241 23.25446850
3
i = 0, time = 0.0, E = 0.0;
H 21.98333502 22.82966440 23.05872119
H 20.88922228 22.07239124 23.97908573
O 21.03556789 22.72899434 23.29467523
3
i = 0, time = 0.0, E = 0.0;
H 21.19971234 23.43369374 22.78326037
H 21.90713795 22.48491760 23.69793177
O 21.02080652 22.66494734 23.32974415
3
i = 0, time = 0.0, E = 0.0;
H 21.92684621 22.88085304 22.96302056
H 21.16791271 22.23824693 24.13489390
O 21.02156832 22.71531972 23.29088821
3
i = 0, time = 0.0, E = 0.0;
H 20.32137079 22.27784370 23.60374004
H 21.64159766 21.99742341 23.19137756
O 21.09287558 22.76848450 23.30996561
3
i = 0, time = 0.0, E = 0.0;
H 21.22712062 23.00756663 22.42043667
H 21.23408795 23.43555331 23.86115760
O 21.06148449 22.63190123 23.34231960
3
i = 0, time = 0.0, E = 0.0;
H 21.87128506 22.78581406 22.79215830
H 20.70490753 23.47659957 23.69046644
O 21.05424004 22.64328644 23.32965390
3
i = 0, time = 0.0, E = 0.0;
H 20.71177169 21.86505316 23.03027869
H 20.60272936 23.38926999 22.89718635
O 21.13373157 22.70680012 23.36463114
3
i = 0, time = 0.0, E = 0.0;
H 20.90769937 23.49051251 23.81562552
H 21.88470119 22.34315723 23.67029978
O 21.04061808 22.67029900 23.26644200
3
i = 0, time = 0.0, E = 0.0;
H 21.07005284 21.86972443 22.78544810
H 20.30021203 23.13333024 23.06869573
O 21.13021825 22.72263100 23.36925067
3
i = 0, time = 0.0, E = 0.0;
H 21.43814796 23.56845634 23.32764643
H 21.55885361 22.14135997 23.90750720
O 21.02772741 22.67810225 23.28224161
3
i = 0, time = 0.0, E = 0.0;
H 21.24198695 23.58754980 23.28353209
H 21.41513496 22.99342156 24.63127038
O 21.22495715 22.70772477 23.73497688
3
i = 0, time = 0.0, E = 0.0;
H 20.74892407 23.57149109 23.32732883
H 21.34931574 22.62981853 22.33643953
O 21.14958600 22.67696832 23.30233637
3
i = 0, time = 0.0, E = 0.0;
H 21.64835357 22.09499451 23.03094365
H 20.53041583 23.16757915 23.22780408
O 21.49931086 23.03729983 23.29485796
3
i = 0, time = 0.0, E = 0.0;
H 21.16102498 23.09789978 22.62408897
H 20.69530938 21.86378619 23.33089195
O 21.25232320 22.63779245 23.47660906
3
i = 0, time = 0.0, E = 0.0;
H 20.82747304 23.55183751 23.91845539
H 20.56076865 22.90872848 22.50510026
O 21.26695287 23.00814702 23.18176278
3
i = 0, time = 0.0, E = 0.0;
H 22.08561184 22.77413992 23.30800301
H 21.09058133 21.88747298 24.05665041
O 21.10833720 22.71649468 23.57604206
3
i = 0, time = 0.0, E = 0.0;
H 20.12005661 23.15206858 23.07489349
H 20.64203045 22.28311058 24.24394308
O 20.89511249 22.65797367 23.38206716
3
i = 0, time = 0.0, E = 0.0;
H 21.50153691 23.06383538 22.78428399
H 21.18937754 22.84406009 24.25581592
O 20.78636078 22.82987167 23.37042522
3
i = 0, time = 0.0, E = 0.0;
H 20.29754362 22.09353509 23.21441402
H 21.62108749 22.35472794 23.85436224
O 21.02580691 22.71784219 23.18860561
3
i = 0, time = 0.0, E = 0.0;
H 22.09749162 22.86926183 24.15152280
H 21.58527988 23.56798137 22.87820548
O 21.30670844 22.89055613 23.55960478
3
i = 0, time = 0.0, E = 0.0;
H 21.51234663 22.36639091 24.13537869
H 22.09385923 22.38615062 22.72220988
O 21.24639444 22.52660247 23.20607261
3
i = 0, time = 0.0, E = 0.0;
H 21.23988702 23.62055396 23.85841523
H 21.15400245 22.11555769 23.73272379
O 20.98321459 22.92321496 23.26746565
3
i = 0, time = 0.0, E = 0.0;
H 20.67466670 23.78996326 22.91659409
H 21.47844633 22.54181216 22.71207302
O 20.88903797 22.95882375 23.37095349
3
i = 0, time = 0.0, E = 0.0;
H 20.32546759 22.98700451 24.05899011
H 20.35462238 23.16245324 22.46379020
O 20.87020300 22.86265748 23.22766735
3
i = 0, time = 0.0, E = 0.0;
H 20.79022492 23.07636713 22.33789460
H 21.06474056 21.82392011 23.18308633
O 20.63560891 22.70162639 23.21770439
3
i = 0, time = 0.0, E = 0.0;
H 20.43265379 22.71609682 23.89870260
H 21.25345055 22.31967134 22.66924997
O 21.08388243 23.10005634 23.25320112
3
i = 0, time = 0.0, E = 0.0;
H 21.16971018 23.41182878 22.42152464
H 20.42689488 22.73383684 23.52630197
O 21.33443311 22.72951263 23.13862358
3
i = 0, time = 0.0, E = 0.0;
H 21.49893367 22.46453370 22.57705862
H 21.46376761 22.64555027 24.07058459
O 21.04352384 23.01022979 23.25503884
3
i = 0, time = 0.0, E = 0.0;
H 21.60277339 22.13307990 22.23942048
H 20.90846771 23.23132352 23.06705497
O 21.09866161 22.22802706 23.08753633
3
i = 0, time = 0.0, E = 0.0;
H 20.48700163 22.44180050 23.34553277
H 21.93127291 22.52420220 22.82744088
O 21.14612712 23.06774067 23.05858430
3
i = 0, time = 0.0, E = 0.0;
H 20.59587338 23.45761182 22.67737629
H 20.67908539 22.22189951 23.52680686
O 21.26548599 22.82082163 23.01347604
3
i = 0, time = 0.0, E = 0.0;
H 20.39894100 22.25345752 22.85003771
H 20.64126872 23.27964764 23.89388907
O 21.15768824 22.61171522 23.39421803
3
i = 0, time = 0.0, E = 0.0;
H 20.63733930 22.93880801 23.70980263
H 21.86140875 23.44451826 22.94488801
O 21.31525728 22.66002038 23.08856124
3
i = 0, time = 0.0, E = 0.0;
H 20.69055291 22.97638162 24.12606870
H 20.23360677 23.28409731 22.66625189
O 20.94958851 22.80730311 23.12889955
3
i = 0, time = 0.0, E = 0.0;
H 20.00121454 22.44378791 23.65185424
H 21.29943587 22.59921537 24.37326795
O 20.99100747 22.35093339 23.51105659
3
i = 0, time = 0.0, E = 0.0;
H 21.41341674 22.73470688 22.31570820
H 20.99427688 21.69139892 23.39423055
O 21.29463306 22.62197548 23.28224057
3
i = 0, time = 0.0, E = 0.0;
H 21.66562769 24.13300180 23.14636824
H 20.18512455 23.53966817 22.99848961
O 21.07225133 23.31439363 23.35825216
3
i = 0, time = 0.0, E = 0.0;
H 20.68569069 22.84934959 22.69847289
H 20.08278856 22.44601993 23.98242848
O 20.78024430 23.01731198 23.64497407
3
i = 0, time = 0.0, E = 0.0;
H 20.41526533 23.64676766 23.17157146
H 21.84975439 23.27662412 23.21557829
O 21.00147617 22.92800091 23.60467487
3
i = 0, time = 0.0, E = 0.0;
H 21.47405342 22.25251881 24.09749000
H 21.71871808 23.16199558 22.97228760
O 20.95894107 22.83237213 23.52690140
3
i = 0, time = 0.0, E = 0.0;
H 20.82089853 22.43088674 23.96918445
H 22.08786413 23.10356939 23.41685633
O 21.13212975 22.93074931 23.21583854
3
i = 0, time = 0.0, E = 0.0;
H 21.21799306 22.32105593 22.06549007
H 21.29307477 21.99172249 23.46880140
O 21.02188746 22.69558354 22.89941815
3
i = 0, time = 0.0, E = 0.0;
H 20.91437328 22.20030346 23.95685563
H 19.95270608 23.07028190 23.21238770
O 20.93752973 22.91832878 23.29169405
3
i = 0, time = 0.0, E = 0.0;
H 20.30530895 23.45939092 23.54925904
H 20.62219105 21.99601725 23.33817219
O 21.04026573 22.91197729 23.37825734
3
i = 0, time = 0.0, E = 0.0;
H 21.52649619 22.21032452 23.44998672
H 20.30592146 23.16737892 23.81915003
O 21.20620497 23.15616979 23.38204192
3
i = 0, time = 0.0, E = 0.0;
H 20.65722999 23.14913433 24.36017288
H 20.90459280 23.24881060 22.87272149
O 20.90041424 22.58908000 23.59269006
3
i = 0, time = 0.0, E = 0.0;
H 20.22433881 22.61738733 23.66227266
H 21.02561957 23.29880691 22.57277364
O 21.06981126 23.05700839 23.52406797
3
i = 0, time = 0.0, E = 0.0;
H 21.94164762 22.72015620 23.00766906
H 20.62273307 22.22564945 23.40603506
O 21.03447822 23.05872338 23.10477662
3
i = 0, time = 0.0, E = 0.0;
H 21.18276119 22.21594922 22.33452877
H 20.51649160 22.66686301 23.58732442
O 21.05020238 23.03438937 22.85434586
3
i = 0, time = 0.0, E = 0.0;
H 21.42257753 21.94899386 22.82742547
H 21.98551593 23.02020132 23.73862097
O 21.16348615 22.81616215 23.16614982
3
i = 0, time = 0.0, E = 0.0;
H 21.14269966 23.96077527 22.87310694
H 21.32073028 22.54574398 23.58966820
O 20.65802059 23.14528562 23.18645332
3
i = 0, time = 0.0, E = 0.0;
H 20.23422146 22.76129126 22.76173804
H 21.73136825 23.05005673 22.88090064
O 20.95799037 22.76353715 23.44549110
3
i = 0, time = 0.0, E = 0.0;
H 21.12415665 23.54506725 23.81629813
H 21.81808369 22.40908126 23.33264040
O 20.91938286 22.74337086 23.23829717
3
i = 0, time = 0.0, E = 0.0;
H 22.07656358 22.86535391 23.26167235
H 21.07471684 22.76452913 22.16839005
O 21.14235476 22.80065325 23.15384997
3
i = 0, time = 0.0, E = 0.0;
H 21.70689498 22.79430414 24.02308595
H 20.31787541 22.97804564 23.48752015
O 21.14377161 22.51876858 23.33493111
3
i = 0, time = 0.0, E = 0.0;
H 20.25151233 23.08283454 23.76085729
H 21.67004515 23.15231677 23.44115255
O 20.90440856 22.62772571 23.19852086
3
i = 0, time = 0.0, E = 0.0;
H 21.08733491 22.30590454 22.80733804
H 20.16073087 23.45304683 23.19512024
O 21.11508444 23.21538899 23.21804302
3
i = 0, time = 0.0, E = 0.0;
H 20.94320028 23.63422092 23.02378738
H 20.90076691 22.15643622 22.60630362
O 20.95776174 22.72281679 23.40282190
3
i = 0, time = 0.0, E = 0.0;
H 20.69508232 22.61395428 23.91494647
H 20.36378657 23.03728399 22.51531699
O 21.14194302 23.03931002 23.10868537
3
i = 0, time = 0.0, E = 0.0;
H 21.46233225 23.44191949 22.38016094
H 21.51730228 22.52900997 23.62758401
O 20.90298259 23.06988020 23.06994271
3
i = 0, time = 0.0, E = 0.0;
H 21.93002598 22.53935303 22.79474429
H 20.45817947 22.09226014 23.17026417
O 21.08605677 22.85808647 23.20695929
3
i = 0, time = 0.0, E = 0.0;
H 21.49528898 23.71941692 23.61586197
H 20.28487537 22.99738222 22.99851836
O 20.97276643 22.86566119 23.68246403
3
i = 0, time = 0.0, E = 0.0;
H 21.48320734 22.80184199 24.12467545
H 22.23709682 22.93059911 22.86355611
O 21.30546794 22.97485528 23.15569825
3
i = 0, time = 0.0, E = 0.0;
H 20.79891317 22.27773337 24.02395322
H 21.41156486 22.58558262 22.58795935
O 21.33537316 22.93093935 23.49518113
3
i = 0, time = 0.0, E = 0.0;
H 20.06789646 22.76910515 23.18509037
H 21.45883019 22.51737365 22.51521445
O 20.99668298 22.80835109 23.38709025
3
i = 0, time = 0.0, E = 0.0;
H 21.18714666 22.45302539 24.18790669
H 21.63149345 23.37760396 23.16909368
O 21.03896489 22.67049055 23.27456479
3
i = 0, time = 0.0, E = 0.0;
H 21.33553874 23.63125168 23.35426013
H 20.50383425 22.70914425 22.60683777
O 21.10066258 22.63837325 23.36251213
3
i = 0, time = 0.0, E = 0.0;
H 21.31213891 21.83173381 23.50250215
H 20.36032597 23.00084218 23.86050671
O 21.11117845 22.73337184 23.27418623
3
i = 0, time = 0.0, E = 0.0;
H 21.38901419 21.85125228 23.04984651
H 21.61596119 23.41306368 23.07666688
O 21.02722504 22.70617052 23.35209031
3
i = 0, time = 0.0, E = 0.0;
H 22.00955517 22.75114496 23.14666927
H 20.71405368 22.30541172 22.54507432
O 21.04495225 22.71926018 23.37948253
3
i = 0, time = 0.0, E = 0.0;
H 20.43828703 23.35488712 23.14013013
H 20.68331984 22.00180267 23.80687375
O 21.14588467 22.70035060 23.30039618
3
i = 0, time = 0.0, E = 0.0;
H 20.74852027 22.19664190 24.07444950
H 21.45539592 23.52827433 23.55686265
O 21.07769492 22.67715090 23.25728206
3
i = 0, time = 0.0, E = 0.0;
H 21.05240036 22.96370507 24.19956334
H 20.55110949 21.92639069 23.12609634
O 21.11552288 22.72974788 23.27653938
3
i = 0, time = 0.0, E = 0.0;
H 21.89813636 22.49111013 23.71672191
H 20.87033124 23.52322160 23.75955540
O 21.04212596 22.65891658 23.26704987
3
i = 0, time = 0.0, E = 0.0;
H 21.78046951 23.18245275 22.86173476
H 20.97519587 21.86593433 22.86426404
O 21.04293255 22.71977490 23.37732430
3
i = 0, time = 0.0, E = 0.0;
H 20.52669822 23.48387380 23.50009642
H 21.38397317 22.70704762 22.40674384
O 21.09617050 22.64779074 23.36593058
3
i = 0, time = 0.0, E = 0.0;
H 21.51524708 22.21634484 22.64057154
H 21.41620383 22.40016386 24.11491895
O 21.03185738 22.74698494 23.31246227
3
i = 0, time = 0.0, E = 0.0;
H 21.21583578 22.42425714 22.46605016
H 20.40570566 22.13580556 23.67754713
O 21.11438683 22.75054126 23.35101396
3
i = 0, time = 0.0, E = 0.0;
H 21.03740686 21.98057027 23.87110844
H 20.55132880 23.29550140 23.77347595
O 21.11645371 22.70542987 23.25644587
3
i = 0, time = 0.0, E = 0.0;
H 20.48331390 23.45421110 23.20073662
H 21.75434600 22.85322411 23.94785084
O 21.07556894 22.64044990 23.28769562
3
i = 0, time = 0.0, E = 0.0;
H 20.65503513 22.15683621 22.69163259
H 21.08281146 22.24847479 24.15167220
O 21.10705915 22.76029121 23.30692963
3
i = 0, time = 0.0, E = 0.0;
H 21.02978133 23.58654764 23.07554951
H 21.75582358 22.56244683 23.95006464
O 21.04104625 22.65043230 23.29544343
3
i = 0, time = 0.0, E = 0.0;
H 21.74335322 23.23425211 23.73012508
H 21.48905669 22.20356868 22.69507957
O 21.01289577 22.69523904 23.33327159
3
i = 0, time = 0.0, E = 0.0;
H 21.70213861 21.99659968 23.45926902
H 21.48093244 23.51492274 22.95135740
O 21.01600432 22.69059554 23.33419007
3
i = 0, time = 0.0, E = 0.0;
H 21.71378699 23.37722547 23.23735523
H 20.17435985 23.01341027 23.22068491
O 21.09758963 22.63520795 23.33120282
3
i = 0, time = 0.0, E = 0.0;
H 21.44363773 22.23535122 24.06183675
H 21.84278137 22.65375840 22.71228604
O 21.00949298 22.72981000 23.31128837
3
i = 0, time = 0.0, E = 0.0;
H 21.81469528 23.23837164 23.25880997
H 21.36987848 21.85045106 23.02776780
O 21.01590964 22.71722729 23.34200561
3
i = 0, time = 0.0, E = 0.0;
H 20.82479346 23.54124688 23.78880348
H 20.68033489 22.60503803 22.45979832
O 21.12172130 22.65060301 23.34439825
3
i = 0, time = 0.0, E = 0.0;
H 21.88208702 23.19313269 23.36469876
H 20.35491455 23.23368400 23.22652187
O 21.07561040 22.63292841 23.32281193
3
i = 0, time = 0.0, E = 0.0;
H 20.96704015 22.38909291 22.41063978
H 20.29194760 22.62809424 23.79498811
O 21.13722914 22.72174062 23.34710579
3
i = 0, time = 0.0, E = 0.0;
H 21.41273094 21.82485228 23.44584633
H 20.46237840 22.62949225 22.58634978
O 21.09841106 22.75720192 23.35803269
3
i = 0, time = 0.0, E = 0.0;
H 20.20119601 23.09971120 23.44321278
H 21.18962204 22.07881001 22.57107531
O 21.12892331 22.71157593 23.35916094
3
i = 0, time = 0.0, E = 0.0;
H 21.15093700 23.63912916 23.28529661
H 21.96219008 22.35360872 23.24842745
O 21.02041106 22.66027707 23.32643443
3
i = 0, time = 0.0, E = 0.0;
H 20.50740088 23.04900944 24.00589006
H 21.96764987 22.90376783 23.53551255
O 21.06061238 22.66279475 23.26294672
3
i = 0, time = 0.0, E = 0.0;
H 20.80388785 23.40710211 22.75791187
H 22.01368287 22.79496007 23.50402444
O 21.03903228 22.64708882 23.34355813
3
i = 0, time = 0.0, E = 0.0;
H 22.03693403 22.62480079 23.50986720
H 20.72254192 21.84452028 23.51686866
O 21.04269247 22.75625833 23.29537275
3
i = 0, time = 0.0, E = 0.0;
H 20.65963861 22.38912641 24.10682242
H 21.99782578 22.75031139 23.61125024
O 21.04911961 22.71403833 23.25181582
3
i = 0, time = 0.0, E = 0.0;
H 20.40006030 22.70411043 24.01558077
H 21.15243656 23.57992279 23.06533799
O 21.11873691 22.64192433 23.29195902
3
i = 0, time = 0.0, E = 0.0;
H 21.90973323 23.08539684 23.18119638
H 21.19688678 22.06543903 23.97531813
O 21.02082103 22.71332022 23.28719618
3
i = 0, time = 0.0, E = 0.0;
H 21.10380556 21.97011421 23.91057137
H 21.95536400 22.83347724 23.00940337
O 21.02381060 22.73519798 23.30209912
3
i = 0, time = 0.0, E = 0.0;
H 21.57100964 22.00533307 22.94529286
H 20.20435792 22.70377845 23.02441651
O 21.10469518 22.74115059 23.36196958
3
i = 0, time = 0.0, E = 0.0;
H 20.80881996 22.70341895 22.42263329
H 20.94469234 23.59232198 23.64060808
O 21.10607214 22.64118669 23.35607669
3
i = 0, time = 0.0, E = 0.0;
H 21.32881298 22.00698765 22.69908169
H 21.65249085 22.69226464 23.98830052
O 21.02871644 22.74177176 23.31675337
3
i = 0, time = 0.0, E = 0.0;
H 21.51665296 23.29520854 23.87780503
H 21.09301632 23.13615428 22.47123828
O 21.05213088 22.63264197 23.33807005
3
i = 0, time = 0.0, E = 0.0;
H 20.46731149 22.30538062 22.69399301
H 21.32242454 22.07566666 23.97483304
O 21.10378991 22.76181993 23.31792248
3
i = 0, time = 0.0, E = 0.0;
H 20.76548069 22.04072204 23.95593656
H 20.36162776 22.87715645 22.70748840
O 21.14553804 22.72799745 23.31826278
3
i = 0, time = 0.0, E = 0.0;