33
i = 0, time = 0.0, E = 0.0;
H 23.82821199 18.02852411 18.16295551
H 21.60368443 22.33301904 19.58595149
H 22.81194431 22.79281281 20.42232702
H 22.44747665 18.47137734 22.80760137
H 22.04159634 18.13871935 21.42902883
H 18.75408182 22.72979125 19.28287390
H 18.72886513 23.40423904 20.65654403
H 20.91886152 16.64236252 19.12452819
H 19.90703585 17.56419053 19.95174667
H 20.06295336 22.57073668 21.90323725
H 20.67112162 23.81392480 21.15574870
H 17.95378519 21.22633554 20.20934394
H 16.69896272 20.44126273 20.64443375
H 20.13804304 20.56908956 20.00882801
H 20.96575644 19.77512082 18.96092019
H 24.50915725 20.16350780 20.41508621
H 23.35598207 20.31234018 21.20016215
H 20.46604960 19.93265383 22.36020259
H 19.04679267 20.15188325 21.57297522
H 17.75040709 18.75807281 19.88711430
H 17.59741103 17.29994475 20.54065262
H 22.57170938 18.18291135 18.91806121
O 23.23689173 18.76124863 18.45484003
O 22.00456344 23.18877901 19.97698265
O 22.24839340 18.90726751 21.96993124
O 18.12114353 22.81643085 20.04243928
O 20.89926387 17.35007236 19.86865712
O 19.96174328 23.55963801 21.79793323
O 17.63809284 20.28294973 20.49889978
O 20.36061492 20.55506544 19.05411960
O 23.88295784 20.87780455 20.63019605
O 19.91363737 20.57306774 21.87484485
O 17.85971656 17.80490206 19.69936353
33
i = 0, time = 0.0, E = 0.0;
H 22.02545133 20.44223729 18.09887527
H 22.44905950 24.37651786 21.18762810
H 22.80135292 22.97829534 20.62086989
H 23.20898673 18.96391175 21.46972913
H 22.21775665 18.14089838 20.51649597
H 16.86600360 22.46226037 20.21407412
H 18.23288760 22.32139311 20.61793965
H 21.48245055 16.22088359 19.58301848
H 20.28036695 17.14760647 19.81526485
H 19.88145913 21.48943346 22.30675538
H 20.47896455 22.80902722 21.73649081
H 18.54435496 19.78718844 21.77134864
H 17.41528651 20.13917144 20.73992108
H 19.97998715 21.78820404 19.26307671
H 19.34388361 21.49708851 18.06444592
H 23.31741912 21.34277339 19.35422635
H 23.49571910 20.92366545 20.70889994
H 21.11215506 19.31285543 22.04215920
H 20.30088026 19.01651830 23.46934043
H 18.20577888 18.01257357 20.45439694
H 17.83287818 16.57798276 19.90315095
H 22.68246320 21.54543804 17.13327352
O 22.84842164 20.77848296 17.76415106
O 22.05759371 23.47941565 21.11017187
O 22.33056105 19.02924162 20.99370345
O 17.60611247 21.85080864 19.95746370
O 21.20484175 17.17775532 19.45929516
O 19.65352178 22.23305559 21.70411744
O 17.67776545 19.43887325 21.40361152
O 20.07763557 22.08686742 18.38139805
O 23.74597744 21.69830915 20.16804145
O 20.33155806 19.56568141 22.62630903
O 18.63551616 17.08715358 20.30806848
33
i = 0, time = 0.0, E = 0.0;
H 23.52682299 20.91924427 18.02785701
H 21.83262351 24.00845848 21.24532980
H 21.97348010 22.40992420 21.07725137
H 23.09516586 17.71865263 21.75207144
H 21.96231982 18.25267013 20.90895986
H 18.18678788 22.11382800 19.85546628
H 17.88580398 23.40290455 18.81103650
H 22.10585123 18.62249686 18.79322596
H 21.04501794 17.55185208 19.07301761
H 18.78087326 22.50163152 22.44791978
H 19.94704110 22.57861893 21.46954205
H 16.97893347 19.80422082 20.71755359
H 18.29280923 20.22244955 21.39282065
H 20.82358206 22.77498016 19.28094524
H 19.77301516 22.04661557 18.42076397
H 23.35973852 20.48146648 20.07937082
H 22.70572989 20.24409806 21.56087428
H 21.31469371 19.33203332 22.93402030
H 19.73608118 19.29635990 22.74820500
H 18.15037417 17.35721945 18.83483662
H 18.89159130 18.19858688 19.94188164
H 21.97638702 21.02264342 18.17678369
O 22.71564504 20.35765775 18.04592060
O 21.38954866 23.20205597 20.98807793
O 22.25967279 18.23265305 21.85423721
O 17.84399572 22.41028142 18.94535938
O 21.93824520 17.81389701 19.33537424
O 18.98185197 22.30341718 21.49755552
O 17.60953647 19.47707364 21.38426971
O 20.72330124 22.20360202 18.48029315
O 23.21925224 20.88387177 21.06387804
O 20.46100068 19.87654739 23.04165073
O 19.01553614 17.43997639 19.33558449
33
i = 0, time = 0.0, E = 0.0;
H 21.06704234 18.75334368 18.65805652
H 22.90998284 23.70332267 20.05017455
H 22.51578739 22.21341721 20.27443341
H 21.97829357 18.94312191 23.48399835
H 21.83952191 17.87857289 22.22739965
H 16.96735665 23.00886111 19.56654406
H 18.29647560 22.85650110 20.33086293
H 23.05008626 17.09121404 20.55621928
H 21.60050854 17.04642100 20.12518849
H 19.83658623 22.53323883 21.86310753
H 20.49469635 23.48928343 20.77971235
H 17.31301882 19.47832328 20.56893039
H 17.74893572 20.73600741 19.68924200
H 20.90162939 22.49049074 18.93826634
H 19.47887042 21.92030650 18.70213483
H 22.98215162 20.30034755 20.07834387
H 23.11696307 20.41041687 21.66528916
H 20.25416573 20.09083750 22.37528198
H 19.28939495 20.76564442 21.46008717
H 19.25925983 18.23475332 19.76749468
H 19.06848423 16.84779402 18.94254210
H 21.45514067 20.19833621 18.45779970
O 21.85252184 19.30219003 18.63715558
O 22.13843664 23.08398237 20.02688725
O 21.46955595 18.66116983 22.66583457
O 17.78051030 22.39488271 19.59198911
O 22.14466199 16.85924946 20.88444265
O 19.62755566 23.36640268 21.30920441
O 18.01423873 19.73800797 19.91060178
O 20.40692753 21.78337992 18.40607645
O 23.47718635 20.79538394 20.80856634
O 19.61930338 20.85543350 22.38650680
O 19.68467479 17.47879376 19.28121541
33
i = 0, time = 0.0, E = 0.0;
H 20.83238885 19.62158207 16.94842125
H 22.74263528 23.25745443 20.96222293
H 22.20963198 22.14935954 20.05895770
H 23.42079867 18.79275176 22.30995895
H 22.18476933 18.57383225 21.35654190
H 17.46081009 22.66058302 19.54291544
H 18.58181130 22.42200967 20.58707053
H 21.61320940 18.52694076 19.10084506
H 21.11857109 17.30505072 19.93575565
H 19.78745639 22.10838571 22.39869024
H 20.40734755 23.02524414 21.22156922
H 18.46736116 19.76679525 22.10918007
H 17.38866197 20.13401078 21.02894510
H 20.80138911 23.00620578 18.57119737
H 19.34333430 22.44163107 18.53403622
H 22.88293454 20.40051647 18.84096502
H 23.13483088 20.04202900 20.34118025
H 21.20408687 19.89699769 22.66428122
H 20.00137955 19.68261980 23.63808204
H 18.88228622 17.06351615 20.53639938
H 18.53055836 16.21377328 19.23569144
H 20.87412670 20.92609467 17.96076019
O 21.26010072 19.93731198 17.81660178
O 21.99057960 23.05441861 20.33547634
O 22.59408497 19.21561061 21.97742241
O 18.17555556 22.10290498 19.74677860
O 21.91020253 17.90848447 19.87119808
O 19.60436441 22.86833762 21.83059147
O 17.58572097 19.54071252 21.78862677
O 20.20114466 22.38880209 18.08469891
O 23.33869830 20.72395649 19.64803918
O 20.28612493 20.26525271 22.93217235
O 19.24089495 16.37439774 19.91955595
33
i = 0, time = 0.0, E = 0.0;
H 20.01742047 18.35698944 17.85379727
H 22.60477192 23.88450086 22.04961325
H 22.73405565 22.66366648 21.00713581
H 22.96265616 18.18595199 22.82157266
H 22.87735938 18.07084413 21.34594400
H 17.06499461 23.01014398 21.15637636
H 18.53431602 22.99921489 21.62899510
H 21.51528250 17.55838919 19.20891921
H 22.97693094 17.07483522 19.29261962
H 19.32531965 23.49815417 23.56013388
H 20.33071985 23.72204403 22.38049809
H 19.05698776 19.47401876 20.64070374
H 18.18821020 20.85347382 20.56222545
H 20.64431143 22.33132305 18.09764183
H 20.11032374 21.26955175 19.08558140
H 22.44015976 21.14962108 19.54589355
H 23.05181967 20.44338272 20.75560491
H 21.01024019 18.77053292 22.02812864
H 19.71152399 18.73506489 22.85212811
H 17.90621403 18.81603505 18.90062683
H 17.81709686 18.81745075 17.38951133
H 21.28353867 19.38916030 17.80923909
O 21.00794438 18.45253143 17.77374632
O 22.12698640 23.38770691 21.38666641
O 22.76741055 18.74284300 22.00959370
O 17.89678787 22.53832341 21.01222546
O 22.21818791 17.18312221 19.84912673
O 19.41864697 23.97396049 22.70691196
O 18.36597896 19.92895934 20.13494777
O 20.96989311 21.55591339 18.67229068
O 23.25865740 21.18031234 20.12725305
O 20.11856794 19.14115941 22.05589191
O 18.01989497 18.22876486 18.09087861
33
i = 0, time = 0.0, E = 0.0;
H 22.54272605 20.46176185 19.05483063
H 23.34084399 23.49214953 21.74774884
H 23.19023023 21.98899017 21.36553286
H 22.44038128 17.11089196 22.24472042
H 22.02585260 17.43856709 20.75801789
H 17.40408208 22.92486492 19.32816929
H 17.94054926 23.35795966 20.75446229
H 21.58987979 18.56828329 18.68064866
H 20.31863634 17.72250648 18.99372645
H 20.34394379 21.32954795 21.41419129
H 21.01590164 22.62262033 21.35179921
H 17.99639163 20.56837251 21.83978903
H 17.16447211 20.88015629 20.55642630
H 19.93949197 22.14920928 19.47006615
H 20.85597718 23.00425318 18.60645393
H 23.87969896 20.30772523 22.55138815
H 23.40394155 19.39672581 21.47006779
H 21.24736326 18.90865594 21.67942698
H 19.80905834 19.28820465 21.44022849
H 18.18439506 18.80803548 19.59265939
H 18.18333010 18.41116837 18.11096070
H 21.24270688 21.14013603 18.17398111
O 21.91212402 20.40414268 18.24003031
O 22.65802409 22.83454096 21.48913010
O 22.26228812 17.83237239 21.62799781
O 17.23701947 22.86565553 20.28267748
O 21.29677653 17.67233599 19.07736836
O 20.07795441 22.23979517 21.23910975
O 17.53324944 20.11711396 21.13877731
O 20.09446626 22.37672793 18.49770271
O 23.96910930 20.20102303 21.60602266
O 20.60711556 19.70194171 21.68998835
O 18.40139894 18.01713879 18.98034930
33
i = 0, time = 0.0, E = 0.0;
H 23.10912188 18.64846468 17.66303838
H 21.63910500 24.16096807 20.58234331
H 22.37982969 23.05332874 19.85335471
H 23.48422593 19.87360210 23.39329354
H 22.87931993 18.97470393 22.19695666
H 16.00193661 22.14454572 20.90268396
H 17.48008201 22.23329004 20.14198654
H 22.91177939 18.14422962 20.41074028
H 21.43980609 17.85600613 20.87242383
H 19.79617091 21.89512269 20.90807832
H 19.99735561 22.72564768 19.64312364
H 16.55105719 18.46042201 20.15007818
H 16.83063841 20.02429461 20.43338096
H 19.58877639 20.85336739 18.91009688
H 19.10686244 20.05355949 17.64916603
H 23.21010917 20.79156593 19.30770174
H 23.48856294 21.02932458 20.73648927
H 21.69153226 20.77143533 22.23959565
H 20.46183343 20.08681017 21.61761599
H 19.77487606 18.90685143 19.95429857
H 18.75441366 18.50433179 21.08039700
H 21.66401774 19.36154039 18.21447170
O 22.60757292 19.09088586 18.48770748
O 21.55597041 23.58003853 19.79501452
O 23.17863493 19.91064092 22.48353493
O 16.54005187 21.82048699 20.16439234
O 22.38384770 17.79708250 21.18913278
O 19.33268482 22.01522667 19.98835799
O 16.91995766 19.10149282 20.84219621
O 19.86509512 20.10267774 18.28778242
O 23.34221947 21.55754592 19.90049683
O 20.74597692 20.97144747 22.04465302
O 19.69208329 18.39889248 20.83230556
33
i = 0, time = 0.0, E = 0.0;
H 22.14453763 18.27733017 19.05731491
H 21.07398942 22.89314738 18.74199230
H 22.49039021 22.91969077 19.38212713
H 22.82321980 20.75071255 22.45898609
H 22.18992065 19.59500032 21.56684284
H 17.63383532 21.78719998 18.99081347
H 18.60383201 21.85105187 20.06443037
H 22.46302416 17.16513054 21.36153447
H 20.87317573 17.43444247 21.76364181
H 19.50661499 22.18484142 21.76666254
H 20.22492097 23.03178611 20.61060987
H 17.24395687 19.58451015 21.59671345
H 17.65225066 19.53529457 20.09631114
H 19.78615619 21.57202611 18.19377904
H 21.06318623 21.08688977 17.48123947
H 23.43309143 20.80256154 18.69022078
H 23.73735122 20.98724765 20.20053227
H 20.35543908 20.29888678 22.71786845
H 19.08958754 20.02416207 21.91851132
H 18.86090997 17.61831708 21.22053567
H 19.01742929 16.52932552 22.29762755
H 21.40027742 19.67070020 19.15177042
O 22.08837288 19.21730327 18.64934960
O 21.59208351 23.27794916 19.51777385
O 22.10599476 20.53844977 21.84426858
O 18.31722392 21.18199265 19.33378240
O 21.76270326 17.88476739 21.36263570
O 19.30830471 22.83220913 21.08428413
O 17.80214788 19.03911762 20.94454545
O 20.53470868 21.90883628 17.60746342
O 23.85472923 21.50332350 19.30547498
O 19.37146948 20.33645845 22.75646080
O 19.46254098 16.81207123 21.45399419
33
i = 0, time = 0.0, E = 0.0;
H 21.35182565 18.76378190 17.57147288
H 22.89108887 22.86454956 20.15873621
H 22.64556232 21.41333928 19.95268316
H 23.26816802 18.99497021 23.29321202
H 22.42873198 18.44439523 21.99597876
H 17.61873104 23.35933223 19.75103100
H 18.63084968 22.45390907 20.44882894
H 21.30736788 18.96456701 20.28198595
H 20.09415383 18.19692046 20.95600733
H 19.92457635 22.11321331 22.21327603
H 20.71036384 22.41634611 20.87503532
H 18.01878633 20.09270900 18.28293310
H 17.54206676 20.77942892 19.53904884
H 20.89324688 22.47998858 18.24641617
H 19.34920191 22.29413518 18.38147811
H 23.36367034 19.46352425 19.11938987
H 23.79689195 19.52039943 20.64099722
H 20.04514233 19.85784450 24.11049906
H 20.54050023 19.63746561 22.64127423
H 18.05698450 18.73872146 20.31035535
H 17.85755279 18.27344463 21.77537297
H 20.85982559 20.19245360 18.15339724
O 21.32980060 19.37020495 18.34200098
O 22.17623701 22.28833443 19.88196274
O 23.32431875 18.75307454 22.31474142
O 18.06071012 22.50256529 19.65781383
O 21.04242923 18.44568068 21.10044543
O 19.87774956 22.69909734 21.35213914
O 17.52559409 19.86654552 19.09829320
O 20.15605669 21.89506835 17.99836646
O 23.87757575 20.01434750 19.80622794
O 20.42167633 20.31781666 23.34688626
O 18.43785689 18.14567190 21.00088947
33
i = 0, time = 0.0, E = 0.0;
H 21.80165225 18.04761387 17.16898032
H 22.58239446 23.34147883 19.55138945
H 22.59118268 21.77351688 19.63759562
H 22.50934546 19.22020228 23.20439363
H 21.94506638 19.35236472 21.72532686
H 17.30647674 21.49983659 18.98335221
H 18.59837420 21.90629649 19.85460649
H 21.65774439 18.28638171 19.73370562
H 20.94357527 17.66607579 20.91933213
H 19.44207044 22.44964089 21.59871453
H 20.26661649 22.97911182 20.29820816
H 18.41879019 20.39248333 22.83676932
H 17.46172900 20.28937808 21.68308159
H 21.12519745 21.44941248 18.03055326
H 19.76658995 21.05667351 18.43444275
H 23.09726837 19.80451646 20.27475033
H 23.20315722 19.89813319 18.73646604
H 21.01343045 21.01999071 22.95167160
H 20.34187778 21.94322513 24.12395386
H 18.41487377 18.09870362 20.90298792
H 18.63118653 19.14183008 19.93047682
H 21.16879106 19.48910475 17.79274360
O 21.92834655 18.80794612 17.79968835
O 21.98918950 22.58735563 19.50062717
O 22.26444749 19.87927749 22.53404627
O 18.11884867 21.11709627 19.47215873
O 21.78624242 18.00067908 20.67903420
O 19.36668575 22.92589164 20.70835218
O 17.58816439 19.87078335 22.54398635
O 20.44035968 20.84696609 17.74564649
O 23.45734127 20.42873737 19.54749681
O 20.20077887 21.55967550 23.19643724
O 19.02079370 18.28719594 20.19282657
33
i = 0, time = 0.0, E = 0.0;
H 21.16455616 18.64315649 18.47842781
H 22.61385844 23.39506377 21.06529339
H 22.04032613 22.06674664 20.86905489
H 22.72018986 20.36682931 21.02495866
H 22.22897377 19.15100356 21.91953380
H 17.14115328 22.13462363 19.24964365
H 18.43097014 22.38209450 20.22998863
H 22.57836073 16.97524292 21.82348147
H 21.19886079 17.37798392 21.10083887
H 19.30347353 22.22975244 22.17632312
H 19.94128183 23.40583780 21.32199817
H 19.06804304 19.84953362 21.61576446
H 18.17195285 20.21802876 20.52009142
H 18.93970406 21.14258726 16.80481942
H 19.24549740 21.28076076 18.35298348
H 23.00928112 21.28585919 19.13823143
H 22.84490302 19.79563330 18.88782421
H 21.05452534 20.76101883 22.62122340
H 19.89925544 20.87916918 23.83088099
H 19.42293783 18.35171495 20.01595939
H 19.58411213 17.47658505 18.90265800
H 21.08507537 19.79273469 17.39496973
O 21.66381101 19.12720218 17.73871458
O 21.84946373 22.98240117 20.66049258
O 22.24008499 20.19813901 21.93347886
O 17.95954040 21.73312546 19.58942412
O 21.79896516 17.54282994 21.91321638
O 19.06978058 23.12918593 21.67034184
O 18.55535174 19.35568547 20.93257716
O 19.70820961 21.13976827 17.44983380
O 23.21880167 20.40872236 19.61075921
O 20.04837971 20.95190441 22.82561021
O 20.08661829 17.75171354 19.66065452
33
i = 0, time = 0.0, E = 0.0;
H 22.40480922 21.07518161 16.06460417
H 22.21241997 21.71682293 21.09393014
H 21.63995387 22.85302679 20.12151673
H 22.39752155 17.49282831 20.65796304
H 21.04617549 18.25889918 20.20939175
H 19.15274468 21.86210585 20.07429770
H 18.92240376 22.70659444 21.33770705
H 18.82095733 18.67470441 19.71520043
H 19.10549126 17.44376022 20.35299703
H 21.97419731 23.62235600 22.26058108
H 21.30191779 23.77243862 23.70491942
H 16.51097187 19.96079789 20.09442531
H 17.80427497 20.47930567 20.76582697
H 20.64332764 21.48361858 18.04387524
H 19.06565317 21.46649137 17.92959245
H 24.19401026 20.25688396 19.15240442
H 23.05016625 19.17963529 19.35082837
H 20.50583919 20.80986307 22.11613477
H 21.43268170 19.50154425 21.92330753
H 17.21896104 17.75206199 21.97133018
H 17.09672407 16.73695331 23.02934173
H 22.67702287 20.49040933 17.52728763
O 21.97458040 20.87425719 16.94483730
O 22.39769429 22.58750823 20.72781677
O 22.07185215 18.34411199 20.35840975
O 18.84911023 21.77298206 21.05961633
O 19.56647204 18.05729782 19.79213179
O 21.46471630 24.26314976 22.84999579
O 17.41525569 19.67084253 20.37789309
O 19.83586296 21.70248968 18.53668667
O 23.63476974 19.61497664 18.65408115
O 21.38247546 20.44957471 22.27701488
O 17.76429873 17.06953019 22.39701072
33
i = 0, time = 0.0, E = 0.0;
H 22.40036999 19.72561995 17.14128667
H 21.69992639 23.77025051 20.63675903
H 22.13952157 22.47857078 20.20645152
H 23.60328574 19.85735887 22.76202615
H 22.91510924 18.83441553 21.78738816
H 17.27107886 22.18328410 19.76903032
H 18.59634933 21.77405309 20.63081292
H 22.41532734 17.33345102 20.44199493
H 21.41737919 17.65114502 21.44661180
H 19.52207709 21.40616432 22.25777045
H 20.04942120 22.58218659 21.18925993
H 17.35127991 18.84137148 18.31373615
H 17.59850051 19.75750690 19.52856552
H 20.57793564 22.37509355 18.12194719
H 19.25075398 21.80523359 18.46741928
H 23.08251178 21.07482581 19.30257861
H 23.21596688 20.86628500 20.80593167
H 21.09627359 19.62573826 22.60518603
H 19.69676356 19.20491528 22.06437416
H 18.37970728 18.32600369 20.54275103
H 18.80312382 17.56783132 21.89874629
H 21.35425226 20.66715596 17.86793035
O 22.23476857 20.19140707 18.03726707
O 21.30720239 23.08269455 20.09034391
O 23.01736977 19.82102448 21.98057375
O 17.97094900 21.45111674 19.83965360
O 22.31766376 17.45562918 21.41089165
O 19.30842164 22.25978628 21.76478863
O 17.44893256 18.75300392 19.31888172
O 19.90433626 21.89213602 17.65468622
O 23.36764503 21.57717367 20.08009966
O 20.10302575 19.87041304 22.66962514
O 19.17146295 18.04526825 21.11034278
33
i = 0, time = 0.0, E = 0.0;
H 22.78154259 20.73545448 17.63800172
H 22.33099239 23.80811338 21.87162806
H 22.33664980 22.30173966 21.35134252
H 23.04703695 17.06625246 21.43724187
H 21.87797760 17.64720279 20.53642169
H 17.38524240 22.53643418 20.88825763
H 18.69522010 22.09205027 21.77973592
H 21.52296854 18.70224627 18.51842935
H 20.40218804 17.65854141 18.89832520
H 19.56157028 21.00898689 23.17064507
H 20.37593790 22.06748289 22.61206913
H 19.45597238 20.94619422 18.88234732
H 18.48333412 20.69134791 20.09216623
H 20.99149629 23.15122642 19.78165009
H 20.58443404 23.41506201 18.29354926
H 22.45975898 20.64423889 20.02917992
H 22.21033786 19.96603966 21.56784032
H 20.38455958 18.66788745 22.25652928
H 19.70090366 19.73337237 21.40652224
H 18.70363655 18.76220646 18.45884786
H 18.08659979 17.32249711 18.12784459
H 21.56703429 21.35073640 18.47158981
O 22.04361223 20.51250581 18.27185381
O 21.84428411 23.14586190 21.39119790
O 22.26391266 17.74601742 21.48640607
O 18.04477977 21.87195359 21.00008900
O 21.35704313 17.85615408 18.99101006
O 19.55233768 21.96421156 23.12312778
O 18.97703529 20.18604820 19.35444287
O 20.49604165 22.77789327 19.03339084
O 22.54607431 20.69483417 21.02197581
O 20.07867591 19.59556062 22.28476020
O 18.91594476 17.88689070 18.10716528
33
i = 0, time = 0.0, E = 0.0;
H 23.26359325 19.65313386 16.96317639
H 22.10384029 23.51479809 19.59931961
H 22.54031530 22.19493474 20.33836405
H 22.87257714 17.28334593 21.66075148
H 21.85197786 17.97064735 20.71088946
H 15.77854675 23.44211222 20.30357454
H 16.96248079 24.34418178 19.86695349
H 20.91197373 18.71843784 19.24974686
H 21.47792989 17.27359006 18.85528797
H 19.96923321 20.77544344 22.87585337
H 20.78542234 21.89520536 22.01515670
H 18.61633252 21.69116130 21.17979885
H 17.53819988 21.97358828 20.02138524
H 20.95702414 21.53855282 18.90588544
H 19.58027766 20.80283294 19.09361545
H 22.84735479 20.53647644 21.95528609
H 23.06975459 20.17562576 20.54492777
H 21.19388457 18.75219710 22.86303375
H 19.65342581 18.71393126 22.63003923
H 18.75707370 19.79613171 20.73195258
H 18.31419061 18.36282124 20.61548664
H 21.79235247 19.87479147 17.39900237
O 22.39509346 19.73512465 16.61609918
O 21.86037239 22.64159114 19.77636945
O 22.13182030 17.85452540 21.69856249
O 16.68599451 23.38393257 20.00947003
O 21.74915230 18.15205756 19.09539580
O 19.94970527 21.66387776 22.45388528
O 18.18104680 21.31411251 20.36602374
O 20.44856906 20.71454034 18.65982479
O 23.33834624 20.84009352 21.18649479
O 20.35097259 19.11808458 23.29377681
O 19.16145776 18.88245171 20.76402091
33
i = 0, time = 0.0, E = 0.0;
H 21.65927176 20.06334435 17.05692048
H 22.87080071 23.49159537 21.06619781
H 23.08867201 21.82840469 20.76391997
H 22.14255875 17.63314599 21.95661827
H 21.58569404 17.79833868 20.39806545
H 17.18340522 22.86660617 20.81422914
H 18.55043450 22.83696649 21.64170171
H 21.48028628 18.33361745 18.62675769
H 20.17892100 17.44274958 18.91553364
H 19.64521111 21.85803585 22.94256329
H 20.07495556 23.32138842 23.18769394
H 18.20341279 20.55881158 20.67360793
H 19.04593267 19.52730107 21.40476603
H 19.45296493 22.35287729 19.03995844
H 20.88719618 22.70304667 19.42736687
H 23.14624174 20.28578111 19.25532323
H 23.31858266 19.53119325 20.55075512
H 21.52016872 21.20596722 21.80957661
H 21.27126300 19.66279082 22.00531337
H 18.36619285 18.42959506 19.48316230
H 18.15474834 16.83795975 19.61176590
H 21.19182814 21.09802301 18.10511189
O 21.61650980 20.19895603 17.99014522
O 22.49396862 22.60791592 20.91999494
O 22.02979683 18.23506087 21.22522298
O 18.06374307 22.46261464 20.79704814
O 21.21282934 17.44469459 18.95391514
O 19.29372003 22.76832167 23.13973894
O 18.38092909 19.59383755 20.68225124
O 20.34426342 22.46710376 18.63518417
O 23.47951408 20.38258691 20.21523243
O 20.92741259 20.55530634 22.32899858
O 18.27243338 17.55982520 19.00967251
33
i = 0, time = 0.0, E = 0.0;
H 21.09922920 20.69158961 18.45423453
H 22.42397949 22.07436790 19.77023320
H 23.41969540 23.28307543 19.74602913
H 23.11539278 19.05605693 21.86631131
H 22.19457634 17.76249428 21.62213540
H 17.55973533 23.34797010 20.00470574
H 18.85633289 22.74432061 19.98402492
H 21.72247786 17.96252889 19.59896030
H 20.52079135 17.07807296 19.56698255
H 20.26125063 22.10349015 21.48453970
H 21.15283599 23.32978933 21.19602088
H 16.68080757 20.58139349 21.30215858
H 17.94031379 21.06304986 20.60970092
H 18.74734806 20.20947005 17.21804909
H 18.50861446 21.52830562 18.07930693
H 25.24923916 20.23939816 21.58807065
H 24.13582946 21.01419213 20.75210201
H 20.84425746 19.69944013 22.11171018
H 19.33544743 19.85483183 21.61740945
H 18.13917117 18.61942767 20.43397646
H 18.31960443 16.99345924 20.51757603
H 21.12318965 20.61518141 20.05109224
O 21.62590527 20.75051524 19.24442543
O 22.98292055 22.71138521 20.37839979
O 22.32555738 18.53957973 22.30956415
O 18.01076200 22.62934377 19.58481943
O 21.46463585 17.02908812 19.89724142
O 20.22492710 23.04280759 21.11182187
O 17.55528387 20.27977352 21.02624658
O 19.20953810 21.02883054 17.54543823
O 24.35917892 20.11325326 21.14431595
O 20.17139753 20.36955133 21.79647920
O 18.29014347 17.77047942 19.93183625
33
i = 0, time = 0.0, E = 0.0;
H 20.86589423 19.50598734 16.62729987
H 23.95493569 23.21472495 21.00252643
H 23.13974860 21.74193808 21.13233729
H 22.20823112 16.90101370 21.86773395
H 21.42615685 17.58537588 20.73102909
H 18.87459180 23.98325892 19.15542489
H 19.58947597 23.34539813 20.31434476
H 20.95222137 18.04342642 18.62736194
H 19.63693656 17.98527141 19.49913740
H 20.32944234 23.29360986 22.80637660
H 21.44407378 22.82446406 21.75161371
H 18.45051366 20.52272832 21.68745360
H 18.22645742 21.69401276 20.64432746
H 22.24089513 22.34721884 19.06928341
H 20.92232711 21.69959681 18.55386849
H 22.33387616 20.28861311 19.99696603
H 22.48077018 19.38164020 21.31920845
H 19.46128365 18.60722040 22.37906753
H 20.02223871 20.04911446 22.62736968
H 17.86640617 19.55859849 20.10131023
H 17.12963801 18.25853716 19.30312848
H 21.91249304 19.90169337 17.72880334
O 21.54762117 19.12885481 17.21387001
O 23.05329320 22.74980550 20.98869537
O 21.78839416 17.71606123 21.65075913
O 19.02989844 23.10015679 19.53850117
O 20.58767917 17.70180556 19.44915486
O 20.48510479 23.03650374 21.86809721
O 17.82192771 20.93268404 21.02765534
O 21.84482035 21.51620101 18.70756486
O 22.56699747 20.29796587 20.92699010
O 19.32775557 19.44913947 22.90700615
O 18.03328499 18.57988940 19.73320623
33
i = 0, time = 0.0, E = 0.0;
H 22.43197964 19.50877591 16.97814868
H 23.25382554 23.61617076 19.82914371
H 22.82385299 22.09090438 20.31704260
H 22.70211716 18.41298798 22.89926904
H 21.71432547 17.71900279 21.95170412
H 17.64025496 22.59849373 19.51552222
H 18.99010247 22.74945306 20.24645492
H 20.73705653 15.83760633 20.57968753
H 19.83282003 17.14350164 20.83228428
H 20.10622651 22.51923841 22.07647284
H 20.91565003 23.51661904 21.16565143
H 18.81701327 20.08981390 21.26331120
H 18.32770295 20.79069006 19.89975680
H 21.41333675 22.56028150 18.26435503
H 19.87443736 22.34750703 18.02964633
H 22.94192758 20.12174640 19.51958410
H 22.89556645 19.81841574 21.10903566
H 20.76878966 19.90086743 22.68805328
H 19.67946593 20.52672512 23.57581976
H 18.14001414 18.39764414 20.28654701
H 17.36043016 17.68450055 21.34096474
H 21.60599063 20.63831955 17.73507611
O 22.06955021 19.77179357 17.87535285
O 22.50852750 22.99458290 19.97464967
O 21.87201256 18.59726741 22.46473524
O 18.53365722 22.27429357 19.41969786
O 20.81994626 16.78446753 20.80387665
O 19.98905082 23.28516586 21.49470111
O 18.30429736 19.96391378 20.41443679
O 20.75748507 22.13841005 17.62962844
O 23.22115462 20.51004712 20.43435599
O 20.00709469 20.52942050 22.64269734
O 18.03523312 17.49479670 20.65716976
33
i = 0, time = 0.0, E = 0.0;
H 21.29460113 19.90882620 16.95229999
H 23.54935754 22.57798222 21.71193740
H 22.98168937 21.94405296 20.25630720
H 22.51931711 17.16104684 21.56346502
H 21.64109825 18.04410232 20.67648048
H 18.58417104 21.65701026 20.33605262
H 19.39495371 22.95867645 21.01016927
H 20.80319576 18.56485520 18.90730254
H 19.55486265 17.90647818 19.51236801
H 20.53350384 23.99640995 22.69824935
H 21.37410219 23.02148406 21.83289963
H 17.69250269 20.59848959 22.16476523
H 19.10115032 20.06833410 22.01924867
H 20.33313557 22.69162776 17.51928111
H 19.37193195 22.37565897 18.65994845
H 23.45349574 19.94568464 18.98340537
H 23.82076568 19.76243095 20.60506679
H 21.13519286 18.75165139 22.61023175
H 19.74627731 18.15603841 23.05687067
H 17.93442832 19.17326542 20.29853028
H 17.28496110 17.89420685 19.68466235
H 20.67717092 20.75152239 18.15293145
O 21.36956292 19.98727532 17.95330859
O 22.78341629 22.55361868 21.05810073
O 22.25295711 18.09618869 21.51203946
O 18.82396196 22.60979163 20.22313772
O 20.52914646 17.76990880 19.39114602
O 20.46996584 23.14609388 22.20643841
O 18.25052879 20.20725518 21.43764618
O 19.81215966 22.00814902 17.81064426
O 23.69991554 20.38198365 19.84611312
O 20.24787205 19.02322799 22.99759180
O 17.89055789 18.60347293 19.43127555
33
i = 0, time = 0.0, E = 0.0;
H 21.27384195 19.08050072 17.30585389
H 23.23769812 23.34885855 20.71168853
H 23.33131705 21.83890752 20.22491148
H 22.34920124 19.71887973 22.50164174
H 21.14235292 18.70868003 22.10641450
H 18.28082032 22.61502398 19.27123696
H 19.37402435 22.13206318 20.35026179
H 21.10134068 18.61651378 19.69060101
H 19.98393829 17.75636694 20.50010575
H 20.10679772 22.25329199 22.11422127
H 21.34516134 22.84425299 21.05892771
H 18.22069415 19.80109004 21.63709847
H 17.69585803 20.17549556 20.34759123
H 21.84923366 22.57286790 18.54335699
H 20.27158450 22.14837355 18.43844021
H 23.85532473 19.21620998 20.22174701
H 24.92131916 20.22398823 19.82568519
H 20.28057141 20.28908819 22.78898057
H 18.83255579 20.37094252 23.36422994
H 17.74789482 17.95224117 19.80482653
H 18.88598392 17.84689464 18.79936859
H 21.41289183 20.36800010 18.26537616
O 21.20213691 19.41844618 18.23642984
O 22.80048057 22.67554428 20.16554275
O 21.48114535 19.31085161 22.89095482
O 18.75595430 21.80326109 19.55690631
O 20.80649044 18.29257724 20.61433845
O 20.38169278 22.90960115 21.32448174
O 17.58227889 19.43149353 20.94865139
O 21.17140947 22.15133774 17.96786889
O 23.99202242 20.16809611 20.08647883
O 19.39820408 20.82327095 22.74370897
O 18.38695053 17.27845032 19.41649937
33
i = 0, time = 0.0, E = 0.0;
H 22.80602043 20.52353334 17.29066044
H 22.39529441 23.93733951 20.81561470
H 22.48673858 22.34889034 20.60886582
H 22.53796556 17.98750076 22.67438374
H 21.75181577 18.59977739 21.40652487
H 17.13689983 22.22917408 19.91363068
H 18.63127833 22.21541107 20.58952237
H 21.51090568 18.71033449 19.06654697
H 20.45038928 17.69287798 19.72925948
H 20.13954755 22.31970684 22.54211465
H 20.57641945 22.73801203 21.06306773
H 16.63460344 18.76592524 20.40306072
H 17.53183081 19.96124279 19.84088273
H 20.71175191 22.69283365 18.44729088
H 19.39440182 21.92137781 18.34046514
H 22.85448656 20.42162390 19.69548487
H 23.01281566 20.33147894 21.24571817
H 21.27657370 20.10735920 23.19344487
H 20.39617669 20.32376488 24.50291756
H 18.29906034 17.43986827 19.56221679
H 18.92066450 16.69251268 20.59103324
H 21.41140046 20.82087008 17.94413125
O 22.20296347 20.17986569 17.99300725
O 22.00320470 23.20860754 20.30893356
O 22.24215335 18.77809270 22.26151235
O 17.94197547 21.63018676 20.02415196
O 21.35396380 18.16056893 19.89909292
O 19.79767008 22.76006191 21.69962416
O 17.42832289 18.92429474 19.88226263
O 20.25323477 22.04882226 17.92063834
O 23.18691997 20.94840242 20.49848651
O 20.74854134 20.81098499 23.68960054
O 19.09173611 16.88216489 19.67410568
33
i = 0, time = 0.0, E = 0.0;
H 23.07890169 19.83895440 17.72954591
H 23.82033592 22.62544583 21.52520454
H 23.28908236 21.26218350 21.09614431
H 20.39511374 17.50599568 22.22202880
H 20.14553334 18.25200342 20.87776843
H 19.60084835 23.60365419 20.34136321
H 19.75958549 22.28648555 20.98235984
H 20.90581723 18.62463402 18.64429481
H 19.44409331 18.03846001 18.82196990
H 20.29510762 21.60544430 23.07342091