69
i = 0, time = 0.0, E = 0.0;
H 26.77709261 17.46882227 5.72671109
H 32.77687785 14.76365665 10.92577330
H 31.47851821 15.48225190 11.01629929
H 28.48863034 14.28591748 8.79158839
H 26.94085034 14.75639856 9.03765331
H 21.07425655 18.24898117 5.76557089
H 20.39555383 16.89588324 6.28728294
H 25.98173605 16.04862074 7.62589751
H 25.12772937 16.04158700 8.81400727
H 22.81710872 22.37546141 5.20508950
H 24.06767970 22.17427878 6.13213975
H 25.51610797 20.46221062 7.03841691
H 26.62107735 21.38716287 6.61570647
H 23.65502368 16.99546387 10.75392520
H 25.23677913 17.42212599 10.67979425
H 22.64199714 20.31385725 5.71355559
H 23.06733397 19.06220150 6.57324735
H 29.56897559 12.59504604 6.99273778
H 29.97519543 12.79621976 8.32460653
H 28.10178943 14.43485482 11.25286966
H 28.71422015 13.28808892 11.92865567
H 20.44352711 17.19061082 2.62131339
H 20.50143614 16.74346782 4.12850166
H 29.65779754 15.89905062 11.98226317
H 30.03842485 16.99849238 11.00751755
H 25.46530047 18.36346748 7.33125702
H 24.86415532 18.88625753 8.79460611
H 28.44919102 16.28917288 9.72473569
H 29.13849967 17.45990290 8.88802246
H 26.69762089 17.55816797 12.17971937
H 27.21393992 17.87890686 10.73709150
H 26.26339372 16.22276034 13.96123348
H 27.74069828 16.16276537 14.17776808
H 31.92248152 15.39709097 8.80536483
H 30.95706418 14.64284423 7.81468588
H 22.94706196 17.39577747 7.44596717
H 23.23141767 15.91241462 7.71229160
H 29.36870053 14.86657667 15.09822995
H 28.27281501 14.27559998 14.07769441
H 23.67864055 17.98765298 4.54911225
H 25.18121231 17.16551640 5.57813724
H 23.33913686 16.61370498 4.98200858
H 30.93002344 13.22309247 10.26604268
H 30.90579384 11.75905605 10.76518361
H 30.43391883 16.63331067 7.49510994
H 30.32250035 18.10988136 6.78226813
O 25.95936949 17.27623192 6.23475418
O 31.90995768 14.70513006 10.46932614
O 27.86494213 14.63662590 9.46487688
O 20.24570671 17.65289289 5.70954136
O 25.57233036 15.37982560 8.24520829
O 23.07546536 22.14549524 6.08970607
O 25.76532687 21.05951471 6.27940667
O 24.42971928 17.05274089 10.12316464
O 22.69176459 19.28280766 5.70297873
O 29.64832775 13.37413517 7.58959174
O 28.40023198 14.21394556 12.19106886
O 20.54845780 16.39768213 3.17309867
O 30.43485999 16.40120307 11.69282074
O 24.87044403 19.01373299 7.78900097
O 28.70028548 17.27246100 9.75958449
O 26.41151940 17.99153349 11.27760944
O 27.08896016 16.76210852 13.76552268
O 31.58104906 15.40746653 7.87026148
O 22.56395314 16.50402874 7.31504597
O 28.40659392 14.76610582 14.87981654
O 24.10407553 17.11991831 4.55398812
O 30.43360667 12.34948053 10.11441976
O 29.81966730 17.42719518 7.26307715
69
i = 0, time = 0.0, E = 0.0;
H 27.02685129 17.17554138 6.79431501
H 31.81753650 13.90681236 10.06671321
H 31.69349588 15.21370262 10.94781932
H 28.35447379 14.81800557 8.99346176
H 26.86633168 15.27371021 8.98489241
H 20.53428571 19.19591285 5.35775909
H 21.57768994 19.99752291 4.58283085
H 25.55402641 15.07810320 7.46170153
H 24.68458483 14.98842027 8.78496964
H 25.53309028 21.61780833 5.32784883
H 25.86486698 21.03180365 6.73975689
H 26.60998711 19.67985404 8.20913191
H 27.64952021 19.55379402 7.11944140
H 22.98327126 16.55270172 9.06602705
H 23.85723201 16.42870651 10.41964461
H 23.63669211 20.19490718 6.56213298
H 23.85092064 18.95404477 7.40889979
H 28.36812849 13.04361316 7.41489101
H 28.58767520 12.54321422 8.75906363
H 27.66928704 14.20255594 10.80781599
H 26.53028342 13.32477519 11.36654943
H 21.89056448 16.01795570 4.45011268
H 21.65984371 17.53757120 4.53886646
H 31.20920759 17.37618542 12.66736824
H 30.33917401 17.04367406 11.29825527
H 25.44280921 17.67526886 8.20478077
H 25.12282536 18.30178223 9.56089453
H 28.51450169 16.91705133 9.79970391
H 29.38965351 18.18751459 9.30310417
H 26.13786692 17.45221005 11.61822812
H 24.87228483 18.35616167 11.92861496
H 28.15405351 18.11215099 11.83438899
H 27.83599752 17.03516321 12.97642979
H 31.00014114 15.53084656 8.57508786
H 30.03145563 14.73528644 7.53844914
H 22.17199916 18.08082344 7.58438338
H 22.51133959 16.71041775 6.99167883
H 28.10759354 14.62009770 12.90266271
H 29.40415699 15.28824929 12.99979776
H 24.56868290 18.35301047 3.95760124
H 25.74136563 17.12531353 5.82373307
H 24.01977142 16.96056175 4.18203315
H 28.74979709 10.82697866 10.06896841
H 27.95591204 11.91961064 10.78543988
H 29.21925544 18.06285362 6.14828220
H 29.54094200 16.92914769 7.14474741
O 26.10376883 16.90924915 6.72960312
O 31.87455912 14.84597753 10.01776953
O 27.74741231 15.43050364 9.47043178
O 20.95200291 19.21420374 4.50210061
O 25.61649919 14.76873498 8.38585430
O 25.08754739 21.23315864 6.16513906
O 27.25925476 20.23281304 7.70352644
O 23.61834225 15.88565928 9.65229027
O 23.18201906 19.30061803 6.71831086
O 28.98373766 13.17612331 8.14369083
O 27.52480382 13.44180754 11.40289993
O 22.32063881 16.86973612 4.53093522
O 30.87528636 16.68397295 12.05617844
O 25.24806582 18.55043756 8.57802557
O 29.02405275 17.70700549 10.09262932
O 25.13250374 17.63250320 11.30143894
O 27.47596724 17.88382598 12.47506790
O 30.53983621 15.59645675 7.61452223
O 22.06923940 17.08486212 7.80392935
O 28.52608485 15.30963054 13.48868882
O 24.86079798 17.45442666 4.15833445
O 27.97855253 11.35700862 9.96792738
O 28.78697316 17.56074692 6.84963881
69
i = 0, time = 0.0, E = 0.0;
H 26.78187884 16.67914405 5.92884191
H 33.07723776 16.15693585 10.51886500
H 31.68045077 16.09412767 11.29685680
H 28.12236992 13.21807109 9.15673547
H 26.68690117 14.03680061 9.18077520
H 19.36376991 16.72605542 5.28580235
H 20.77181963 16.73610233 6.07178860
H 25.38241587 15.29122994 7.53546827
H 25.12010525 15.46076372 9.03023746
H 25.13827325 23.17126481 6.16668857
H 25.79122851 21.70192846 6.01224419
H 26.61378673 20.15581480 7.54868686
H 28.01450604 20.91094574 7.44903124
H 22.33910908 16.88918314 8.42019912
H 21.34931248 17.16121020 9.54589115
H 23.99191284 21.10985186 6.91691447
H 23.98401167 19.67426691 7.72229606
H 30.49703022 12.50599097 7.98770197
H 30.65655084 13.25997955 9.39017675
H 27.31596422 13.34476274 11.33662661
H 26.34851064 13.62193612 12.60694925
H 20.92963282 18.98967801 3.47703343
H 20.99583730 18.03515858 4.67011502
H 30.14609188 15.75467573 12.91947554
H 29.82147924 16.80380893 11.87752897
H 25.90582025 18.18341853 7.47811261
H 25.62522729 18.30292142 9.03670906
H 28.04514789 15.30732280 10.37186202
H 29.02245170 16.13203511 9.58895655
H 25.28989209 16.93550439 11.10187302
H 23.91908869 17.06216645 10.12946310
H 27.41057678 17.31809098 11.31360199
H 27.07568584 18.48324987 12.19704366
H 31.23749646 15.93944049 8.70598678
H 30.31285595 14.86789035 8.22658356
H 22.95718957 17.27369862 6.16005454
H 23.27172432 16.09839055 6.94754948
H 29.82645811 13.66043258 14.03293687
H 28.69125561 14.02701165 13.05472446
H 23.74415512 19.00376231 5.91649015
H 25.23881841 17.44679506 5.67554141
H 23.28416886 18.35531658 4.57904319
H 31.72440508 14.02084625 10.53718400
H 30.72819648 13.63593185 11.57524018
H 29.49948222 16.19057265 6.67345454
H 29.83748900 15.91906582 5.22396743
O 25.88427338 16.88043514 6.35771408
O 32.17553557 15.81743832 10.29449434
O 27.34130112 13.46644237 9.71877026
O 19.98346966 17.29736481 5.80756528
O 25.23239044 14.72105257 8.36591630
O 24.97120947 22.27123270 5.82169212
O 27.13831916 20.83305441 7.02169147
O 22.27151439 16.86313912 9.41329803
O 23.45943721 20.29639540 7.08930109
O 30.13692346 13.28120364 8.47498193
O 27.26619335 13.41295620 12.31727300
O 21.55446123 18.35342377 3.84948246
O 30.55264078 16.53391855 12.43232969
O 25.67855847 18.87877483 8.24364871
O 28.53436364 16.16738091 10.42812858
O 24.86231652 16.81747641 10.16361385
O 26.72890107 17.56594974 11.97822641
O 30.32968176 15.89467774 8.28142051
O 22.47279166 16.54642332 6.68191084
O 29.64525565 14.10231824 13.18554088
O 24.11228252 18.43349094 5.17019291
O 31.21043108 13.24563221 10.77003205
O 29.19993185 16.46678581 5.78293654
69
i = 0, time = 0.0, E = 0.0;
H 26.76717144 17.44944928 5.82353749
H 31.11588856 17.42636565 9.97703248
H 32.46599659 16.76040746 9.79774806
H 27.78509797 13.08434933 8.49854576
H 26.33579274 13.80710872 8.50265696
H 21.03888485 18.89305385 6.59202950
H 20.42739460 17.41089883 6.86224399
H 25.75962024 15.66961406 7.41302120
H 24.70707624 15.20432487 8.51384614
H 24.96159933 21.82255964 5.68921940
H 24.04039014 22.99394728 5.82037820
H 26.64610645 19.52243840 8.45857406
H 27.84854525 19.20065406 9.38874650
H 22.85961296 16.42703331 10.13247837
H 22.70590791 16.24459183 8.59596665
H 22.69756195 20.66383223 6.53510953
H 23.29506051 19.41467356 7.43073975
H 30.30890788 13.33257890 7.59071414
H 30.11523942 13.75310634 9.10390647
H 27.38323773 13.22452062 10.49898318
H 26.92117338 12.34799729 11.76938434
H 20.23917018 18.60785956 3.50719608
H 20.47700940 18.01019583 4.94518524
H 32.97062269 15.26674068 12.52269843
H 31.62923407 16.02944152 12.24631606
H 25.07098889 18.06433959 7.50437200
H 24.13917020 17.77346086 8.73137730
H 27.98167700 15.16997150 10.51701902
H 28.35764044 16.17993449 9.41229922
H 27.45612254 17.50911362 11.21716350
H 27.68153107 18.85077934 11.83866722
H 29.69248480 16.27953761 11.56400695
H 29.58008386 15.67326643 12.90954454
H 30.27979333 16.55175222 8.27445699
H 29.27804742 15.51932086 7.63111804
H 22.30078293 16.40887142 6.41087230
H 21.83154747 14.94123067 6.90646717
H 29.34670361 13.93196792 14.38043139
H 28.56843865 13.68243513 13.08727818
H 23.05443518 18.15790899 5.55770076
H 25.22451687 16.94887610 5.54254402
H 22.48885020 17.26293564 4.49042213
H 31.33698836 14.34641176 10.97208726
H 30.33693239 13.12091749 11.14430351
H 29.02294482 17.74704617 6.25770933
H 28.14023557 18.82314801 6.83048530
O 25.83583266 17.19732982 6.23218871
O 31.83076197 17.34276719 9.29834519
O 27.04457220 13.36494614 9.06999383
O 20.21762403 18.30848699 6.43951541
O 25.34599012 14.87470554 7.83717803
O 23.98328106 22.02421007 5.91980637
O 27.64657589 19.51617389 8.46500806
O 23.44174207 16.34837641 9.37335354
O 22.53272588 19.71654606 6.83993796
O 29.63056649 13.66484169 8.20763728
O 27.65985281 12.97799850 11.53484339
O 20.86360555 17.95544101 3.99151649
O 32.35389539 15.45651102 11.84473044
O 24.59633980 18.49875642 8.23328315
O 28.28776087 16.09346025 10.39707719
O 27.10051460 18.40866970 11.20287005
O 29.92115552 16.53745891 12.49249415
O 29.36911160 16.49073569 7.82040063
O 21.85714027 15.89007692 7.18676338
O 29.17399752 14.32184987 13.51749487
O 23.13045247 17.21353581 5.24582679
O 30.68608850 13.77662393 10.48283444
O 28.28901964 18.30245648 5.96557045
69
i = 0, time = 0.0, E = 0.0;
H 26.57828913 16.35136444 5.92343282
H 33.45558856 14.26888627 11.97553803
H 32.18564731 15.04012560 11.64237342
H 28.03326763 14.52858244 9.53232391
H 26.31406671 14.58235611 9.48845039
H 21.59293923 19.53258888 5.15651112
H 20.32104505 19.95174674 4.39204866
H 25.00548860 15.15994834 7.85795466
H 24.36530875 15.15534083 9.28037758
H 25.55058019 21.92657562 3.92783071
H 25.54784438 21.90245326 5.54828004
H 25.77695262 20.10382826 7.22400844
H 25.79994785 21.46508969 7.99712655
H 22.65534705 15.89643526 10.14388225
H 24.05303242 16.38283479 10.69008127
H 23.79083876 20.61943983 5.35917745
H 23.58147087 19.91196405 6.66962020
H 29.78443549 13.15709423 8.35802003
H 29.92828286 13.44763107 9.84546164
H 27.57338878 14.06090521 11.58272624
H 27.07393975 12.88641518 12.47201333
H 22.09762986 17.83431471 2.43710768
H 21.09484531 18.13193042 3.64648623
H 30.41758989 15.89824428 12.88983363
H 30.86508289 16.90680646 11.72180942
H 25.30041695 17.80789634 7.49534398
H 24.86795880 18.33566512 8.78913597
H 29.03597142 17.72750745 9.66869550
H 30.49471503 17.22476227 9.35603335
H 26.10004587 17.53599055 11.23290209
H 26.21414039 16.39454114 10.34061244
H 28.37605845 17.66683911 11.89897831
H 27.72176768 16.96640298 13.14746910
H 31.54155326 15.95705621 7.72611238
H 30.27224287 15.37004481 8.33773275
H 21.96336083 17.53016840 7.46562964
H 22.13864445 16.35357929 6.66225775
H 28.35598636 14.55379256 13.25549892
H 28.55099383 14.90738201 14.74238971
H 23.39134597 17.89560549 5.16771278
H 24.97935476 16.34015712 5.42670435
H 22.54735654 16.86905119 4.20187423
H 31.39373080 13.00022941 11.17416224
H 29.99813579 12.66050857 11.69521223
H 29.39183132 16.55229290 6.49255798
H 29.00934781 17.36695661 5.16994890
O 25.67585963 16.32235324 6.21286054
O 32.85385324 14.36101205 11.21521586
O 27.17279714 14.73847944 10.07446865
O 20.73313553 19.18067652 4.79927986
O 24.96568525 14.60083899 8.68832820
O 24.98155736 21.88418636 4.71870975
O 26.06228079 21.01970117 7.15445451
O 23.42056328 15.58250417 10.66837033
O 23.17774098 19.98805709 5.81604523
O 29.71069882 13.94394909 8.92573268
O 27.90708676 13.29848820 12.19619162
O 21.34389174 17.45768213 2.92729554
O 31.18638511 16.24734404 12.35161236
O 24.85714547 18.57821663 7.84365972
O 29.83202555 17.35285539 10.16281345
O 25.67863732 17.26745392 10.42289436
O 27.50361549 17.61752442 12.45113095
O 30.61326684 16.19419161 7.84683519
O 21.92241051 16.60653071 7.57655322
O 28.62183931 15.30230712 13.87538166
O 23.26766360 16.95202803 4.98353789
O 30.53933000 12.62527423 10.91783819
O 28.61894541 16.86995874 5.90725870
69
i = 0, time = 0.0, E = 0.0;
H 26.58973095 17.30510835 6.14304809
H 32.94697004 14.00618088 12.14100558
H 31.88615891 15.05106544 11.67483475
H 28.17786638 13.61546925 8.82059263
H 26.65081435 14.33133382 8.96065484
H 19.30368732 16.67478663 5.71009992
H 20.85245467 16.42743105 6.34327081
H 25.71547770 16.15746588 7.85274797
H 24.72090510 15.64599629 8.94888513
H 25.58472443 22.96729675 4.82897965
H 26.13391380 22.43469014 6.15480726
H 26.38118561 20.95511864 7.73074560
H 26.65417806 22.31846910 8.36768601
H 22.12044416 16.20517954 10.47933796
H 22.98470372 17.40167087 10.70121646
H 24.27898048 20.90148339 5.59134380
H 24.26202663 20.09203052 7.00845378
H 30.25168878 12.99986210 7.21636792
H 30.34364522 13.12086402 8.75648654
H 27.79154446 13.39642541 11.07865446
H 27.72192041 12.12146307 12.03630990
H 21.42296560 16.97692301 2.78365535
H 20.95240627 16.72905178 4.30387558
H 31.04235525 17.36987033 11.79616597
H 29.95280115 16.37916539 11.08463028
H 25.21801457 18.27987122 7.80549249
H 25.60348345 18.87939615 9.17023176
H 28.19548456 16.68479258 10.24467679
H 28.32516758 15.20397772 9.97725335
H 26.60470622 17.48555865 11.28100350
H 26.17096751 16.96705234 9.84304630
H 26.73748978 17.42522733 13.82175401
H 27.09538124 16.11334682 12.98037358
H 29.12822815 16.39580053 8.25791995
H 30.06397744 15.47859733 7.39745629
H 22.70850247 16.85520618 6.52944644
H 22.50413393 16.87667571 8.03878298
H 29.36406623 15.75904127 12.73876433
H 28.74929947 14.40424294 13.02809173
H 23.66189521 18.69441923 5.72539890
H 25.07687764 17.12714944 5.94493898
H 23.00388132 17.68823294 4.55077492
H 31.41260604 13.23682478 10.65480802
H 30.03292237 12.53953868 10.91493380
H 28.61981427 18.32575157 5.68898511
H 28.73771939 16.86643705 6.19518330
O 25.76611684 17.04355541 6.62928148
O 32.50054135 14.36505116 11.32801477
O 27.45995265 13.92128746 9.46237206
O 20.15240602 16.25105945 5.60990286
O 25.68960495 15.62980762 8.68599659
O 25.26975268 22.75954503 5.70576889
O 26.98707296 21.68318864 7.69471858
O 22.99459490 16.53149980 10.23343061
O 23.73081689 20.31212444 6.17952947
O 30.04186312 13.62079777 7.92642591
O 28.26004330 12.94782173 11.89809110
O 21.70489405 16.99945633 3.72247088
O 30.60926843 16.46938190 11.85850096
O 25.07032463 19.14797298 8.36864788
O 28.87639910 16.04386444 9.89394188
O 26.70089670 17.69199447 10.28453979
O 26.43569541 16.87564719 13.03813516
O 29.46902901 16.27038190 7.35236830
O 22.20700518 16.29203029 7.27940743
O 28.57416389 15.33814165 13.17581893
O 23.53362600 17.71977026 5.44476478
O 30.72512172 12.64980147 10.22111717
O 28.09826599 17.50604756 5.61130966
69
i = 0, time = 0.0, E = 0.0;
H 26.83150198 16.17672771 5.71586242
H 31.07867098 15.52307177 8.95977366
H 31.36056738 16.73150453 9.83832674
H 28.16337842 14.12332090 8.83375999
H 26.61718903 14.31876068 9.03505327
H 18.64593456 18.23641896 6.34830737
H 20.00813016 17.58267178 6.80615714
H 25.71642379 14.50671585 7.17141094
H 24.91103910 14.83303301 8.50149667
H 25.88003017 21.79589595 7.64055839
H 24.98639280 22.84784651 7.10779360
H 27.55239866 20.28905504 8.02449566
H 28.56617643 21.41196501 8.58005014
H 23.09880786 16.61565692 8.71852735
H 24.34277928 16.96148373 9.77678644
H 24.08373210 20.34010409 6.55066367
H 25.03921676 19.26758479 7.01584229
H 29.49122652 13.04044118 7.06823260
H 30.12463019 13.18415178 8.51530218
H 27.64155620 13.75126998 11.31059233
H 27.34920109 12.64283496 12.36826700
H 21.74214695 17.61634725 3.29917214
H 20.68022838 17.71931721 4.46567537
H 30.31004551 15.26961947 12.51113205
H 29.72531839 16.05536418 11.30488313
H 27.27578244 18.21692931 7.57250527
H 26.91037647 18.37920417 9.06888628
H 28.05774604 15.99798672 10.04332384
H 29.05086642 17.11765522 9.39836547
H 24.53242080 17.11569161 11.49285146
H 26.05545460 17.30500979 11.68521525
H 27.80307832 17.59644280 11.94424145
H 27.26686980 18.38264713 13.10932034
H 30.39850381 16.49112271 7.27637940
H 29.53411943 15.36054026 6.73768874
H 22.15091636 16.64578782 7.07553319
H 21.26051785 15.79843320 8.11739841
H 28.50268800 15.98065838 13.82502259
H 28.54049491 14.53319772 13.40638758
H 23.84840453 17.84737124 5.92991450
H 25.28820206 15.95560744 5.64391284
H 22.84770261 16.81118142 5.29374816
H 30.71592806 13.90695192 10.54488759
H 32.04946920 13.13478667 10.23470833
H 27.83303594 18.24156178 5.18925434
H 28.75692101 17.35062675 6.09084256
O 26.16453952 15.49645752 5.77615918
O 31.35808259 16.42765821 8.92086760
O 27.56764922 14.54618532 9.52274916
O 19.37943481 17.65849961 5.97371033
O 25.57630315 14.20495992 8.10557935
O 24.93675921 21.92215579 7.41697226
O 27.88577068 21.24184574 7.89124000
O 23.81417420 16.22350776 9.29067751
O 24.32782705 19.42775405 6.31311450
O 29.56111323 13.68014756 7.81097641
O 27.49422665 13.62519117 12.29737922
O 21.54839036 17.41793672 4.21802391
O 30.53789733 15.59987330 11.61321402
O 26.68388399 18.69128028 8.19961310
O 28.51221989 16.96129536 10.22700159
O 25.33017224 17.58284163 11.05307771
O 27.31828029 17.44950190 12.78071610
O 29.81310597 16.29091772 6.53187257
O 21.36849696 16.75120826 7.75606946
O 29.16091852 15.21431322 13.81519700
O 23.56007535 16.89852407 6.02990058
O 31.09522248 13.03123380 10.15287328
O 27.80696125 17.71818157 6.04332253
69
i = 0, time = 0.0, E = 0.0;
H 26.57888725 16.76541479 6.31402808
H 32.94854245 15.43841664 7.98081600
H 32.21339635 15.14470031 9.43108063
H 27.26334980 13.62764777 9.41221010
H 25.93498391 14.50641411 9.35733496
H 21.21430813 14.80367005 4.89976476
H 21.32750924 15.61010284 6.34149806
H 24.77211471 15.61654912 7.75461561
H 24.09925296 16.11821056 9.04103042
H 24.67736752 20.83017258 5.34496395
H 25.19865789 22.00602521 6.19011866
H 26.63976043 21.07455030 7.84046951
H 27.53602824 22.38278222 7.79729693
H 23.08710835 18.28449193 9.55879788
H 24.01179266 17.71488844 10.70576133
H 23.51789257 20.58988724 7.30411937
H 24.47015580 19.65731209 8.18985708
H 28.79969662 12.03559988 7.93236528
H 29.15853947 12.92185018 9.18647425
H 27.43685598 14.02649430 11.85145512
H 27.30537945 13.62903775 13.38762596
H 20.61325962 18.69529752 4.49200633
H 21.23744287 17.27308245 4.70435184
H 30.94687935 15.38609292 12.02681361
H 30.46912852 15.89297643 10.56097120
H 26.33032835 18.48744689 7.54349105
H 26.63391853 19.05107016 9.01720843
H 27.98701072 16.01654877 9.97247134
H 28.84116743 16.23349811 8.81485850
H 26.49266808 18.06171465 11.33503401
H 26.34867739 16.48689933 11.38797058
H 28.48046605 19.27944714 11.21059155
H 28.39522988 18.04737210 10.25226878
H 30.76142872 15.19617187 7.97812229
H 29.37918260 14.29805653 7.55455183
H 22.39495864 15.15232152 8.30004845
H 21.61563047 16.35246780 8.76360420
H 30.43838107 14.31493653 14.36260760
H 29.49461046 14.50423945 13.18823830
H 24.01190601 18.96638969 6.21842512
H 25.16582241 17.52155980 6.11730697
H 23.19542100 18.61728966 4.93114897
H 30.32039864 13.68867128 10.98657232
H 29.06201692 12.65199565 11.22204573
H 28.35738655 15.61531836 4.99261660
H 28.91178576 16.19119147 6.29371846
O 25.71751624 16.94703200 6.76179679
O 32.16399808 15.01939255 8.45025882
O 26.79651075 14.36926841 9.93368273
O 21.55959347 15.60907535 5.34540194
O 24.49039230 15.29786426 8.62365470
O 24.39171606 21.53299298 5.94070145
O 26.60427297 22.05505132 7.74374512
O 23.30372968 17.42362021 10.05513511
O 23.48760624 19.84887817 8.01559580
O 28.71074345 12.96324100 8.25513693
O 27.93050811 13.95849151 12.70830845
O 21.41065042 18.13508221 4.26574290
O 31.15826652 15.40458964 11.03077115
O 26.37779316 19.26427299 8.10420241
O 28.80712449 16.54345230 9.73718412
O 25.87333853 17.30192167 11.48239656
O 27.93636653 18.89755395 10.48118061
O 29.77059798 15.25360117 7.62581497
O 21.64602995 15.72412718 8.00810437
O 30.39307250 14.77495247 13.51994079
O 24.15276874 18.65862068 5.33248570
O 29.75925691 12.90851513 10.59489331
O 28.26826682 16.43727983 5.54144741
69
i = 0, time = 0.0, E = 0.0;
H 27.13765083 17.08335635 6.12923612
H 32.91905892 15.38095922 10.87189334
H 31.56605719 15.56602897 11.51352364
H 28.20014728 13.59624907 9.02162509
H 26.44164663 14.12860803 8.66176531
H 21.65999235 19.74892672 5.57931817
H 20.27479186 20.07387233 5.35668732
H 26.00911717 15.56742235 7.26930328
H 24.87353951 15.20852874 8.20799427
H 24.84729437 23.02081431 7.16931463
H 25.71799981 21.87924127 6.55317208
H 26.66778109 20.08092068 7.30460831
H 27.64290798 20.21749049 6.08559488
H 23.01574406 16.34918241 8.97613766
H 24.30791838 16.85518520 9.98894592
H 23.58330456 21.12536673 6.44017762
H 23.28060913 19.93847784 7.35989330
H 29.35629740 12.34139766 7.89580133
H 30.16978923 12.93646908 9.14051163
H 26.20178750 12.83592680 11.83980979
H 27.04121263 12.92861099 10.43216352
H 21.64249696 16.05637677 3.82114680
H 21.17956287 17.55438798 4.38102086
H 29.94359056 15.17111700 12.64764960
H 29.67661265 16.40876215 11.95590669
H 25.44856406 18.02986988 7.68038548
H 25.65248499 18.69905961 9.07300643
H 27.75947137 15.35893603 10.29460936
H 28.89174334 16.28196582 9.84294167
H 26.55501952 17.23547483 10.64209431
H 25.93050510 18.20804976 11.70044515
H 25.73944512 19.66542442 13.85789311
H 27.10286269 19.00386376 13.97102695
H 30.72911556 15.86773557 9.12187412
H 29.81149700 15.16471542 7.97913795
H 22.80154309 15.10002654 6.99455004
H 22.17261587 16.05936367 6.09170790
H 28.95147228 13.05941911 13.53957342
H 28.18896470 13.40780417 12.24635869
H 23.91527758 18.82363878 5.45471514
H 25.58956826 17.39394264 5.61219789
H 23.34523937 17.57714032 4.63749144
H 31.32774832 13.63854140 10.73838702
H 30.08696917 13.02333454 11.11144407
H 29.35880142 17.29492808 7.27716283
H 29.65804194 17.33355449 5.76588124
O 26.16478195 16.93325962 6.28310658
O 31.98121073 15.16654102 10.70034650
O 27.31107116 13.94211545 9.32126307
O 20.88169321 19.35040063 5.11225721
O 25.54720726 14.70454559 7.67757891
O 24.80334205 22.31025394 6.44235858
O 27.29788088 20.75663309 6.81054673
O 23.92670336 16.22732733 9.29256986
O 23.08053020 20.25515499 6.42727353
O 29.65471822 13.16252789 8.27041363
O 26.95965977 12.39211994 11.42687970
O 21.75104895 16.78849193 4.50492243
O 30.35679781 16.04979889 12.50717971
O 25.64418973 18.90523044 8.09170356
O 28.16577968 16.23983957 10.57153263
O 25.75543594 17.81279744 10.80396417
O 26.36727662 19.13129600 13.33972725
O 29.98332198 16.03508819 8.47663875
O 22.10537690 15.75046132 7.07289806
O 29.07101166 13.60219041 12.73406864
O 24.20362909 18.06514709 4.80360853
O 30.80848940 12.89923316 10.45556585
O 28.99624800 17.62701503 6.41937404
69
i = 0, time = 0.0, E = 0.0;
H 26.57962463 17.06443247 5.96054878
H 31.29519404 14.20396483 9.41492872
H 31.70539172 15.65457796 9.72107025
H 28.11804318 14.09281105 8.06924402
H 26.63572126 14.23808679 8.48710092
H 20.47951246 16.56619100 7.00449016
H 19.00270872 16.95089572 6.83564115
H 25.25125729 15.82252833 7.86870351
H 24.47615049 15.45272776 9.18003325
H 26.04042196 22.74647547 6.10809814
H 26.73396954 21.62587370 6.98821849
H 27.52339507 19.90452457 8.69026676
H 28.82911762 20.87737061 8.72505238
H 22.29423295 16.03304562 9.37410351
H 22.33814640 15.63712498 10.88043961
H 24.50702056 20.80179326 6.95670641
H 24.62599654 19.76054940 8.09054747
H 30.66155639 11.95112657 8.81709767
H 29.46382762 12.35886310 9.69710281
H 27.19805340 14.34141604 10.49773709
H 26.37077633 14.75450111 11.72710131
H 21.18108868 18.04026025 3.30610188
H 20.72345043 17.67646104 4.78844560
H 31.88426650 17.91250944 11.14051973
H 30.85875077 17.55725702 10.07104218
H 26.15999410 18.07136128 8.27128415
H 25.84204744 18.21082769 9.74373358
H 28.47263065 17.96241424 8.45145543
H 29.69994556 17.15419744 7.93582641
H 26.46949974 17.48042058 11.82341579
H 25.02743668 16.89989351 11.19651674
H 27.83630204 18.97276094 12.90009309
H 28.18249412 17.45236623 12.86922876
H 30.37699565 15.12358198 7.74489315
H 30.36109772 14.60671039 6.37013905
H 22.63147811 16.93901008 7.13437132
H 23.05011705 15.56722827 7.55656783
H 29.42532281 16.09569929 11.87982177
H 28.43017265 14.96499096 12.26385351
H 23.65241447 18.97146078 6.49555986
H 25.10120549 17.59238623 6.39099207
H 22.86176758 18.25713974 5.35182518
H 27.96389636 12.27938484 11.27519964
H 27.82993107 11.00517021 10.35102856
H 28.71284090 16.21974680 5.54474304
H 28.74290513 17.18601520 4.28811868
O 25.92475663 17.14039355 6.69763882
O 31.61837041 15.02660172 8.96909105
O 27.54825688 14.01455188 8.85494748
O 19.88279955 17.03223228 6.37884854
O 24.91839837 15.08554427 8.37839671
O 25.98453832 21.80519361 6.36704330
O 28.03922795 20.61483758 8.21211055
O 22.83896328 16.20265217 10.24446463
O 23.96068300 20.14983612 7.44914961
O 30.16653250 12.76583179 9.08321224
O 27.02844522 14.06522269 11.45908306
O 21.51991083 17.86112784 4.18026735
O 31.28654715 17.23546727 10.90189678
O 26.11549667 18.80078775 8.96775246
O 29.39621595 17.65965958 8.71726494
O 25.94812151 17.04925621 11.05068830
O 27.46711462 18.08134269 12.76337842
O 29.90471855 15.24435257 6.85472576
O 22.31225520 16.18031016 7.72550403
O 28.96305329 15.72651904 12.64559035
O 23.48157843 18.04421160 6.07896107
O 28.43034350 11.51619004 10.86074092
O 28.12931828 16.75761052 4.95685306
69
i = 0, time = 0.0, E = 0.0;
H 27.20570919 17.73618109 6.57329779
H 33.02446624 15.42947761 9.45309823
H 31.70217973 15.96425556 10.23538356
H 27.87783074 13.73739436 8.74461931
H 26.42358533 14.30279698 8.97273647
H 20.55540248 14.24375448 5.63347871
H 21.06464347 15.47753685 6.40230859
H 25.68863812 15.64978004 7.22058882
H 24.62061318 15.46540922 8.47394316
H 24.46345835 22.23142593 5.50109355
H 25.40221916 22.07114992 6.67229290
H 26.03074980 21.18783314 8.66842123
H 27.36979844 21.73317462 8.28064383
H 24.05028035 16.69285241 10.29015820
H 22.96526263 15.71005183 9.53184059
H 23.39977718 20.40329973 6.62743129
H 23.85638604 19.80668818 7.99289121
H 28.96465533 12.58146296 7.07844036
H 29.53580023 13.15748979 8.36970143
H 27.83071721 13.74078205 10.92326255
H 27.56957892 12.74949229 12.15285139
H 22.32351451 16.92337133 3.42490726
H 21.75664958 15.96403455 4.58336412
H 30.13188128 16.77069680 12.21727616
H 30.15223360 17.29101324 10.76092494
H 25.79014817 18.95439892 8.29344207
H 25.43973633 19.03425143 9.80745495
H 28.39938265 16.22557685 9.61889430
H 27.58095420 17.14684651 8.84433881
H 24.29571290 18.48232288 11.75273970
H 25.59236010 17.75841282 11.50394731
H 27.54876212 18.10249594 11.10524934
H 27.58120762 17.24163758 12.41508342
H 31.08288617 15.87728730 7.93388701
H 30.44384230 15.05571915 6.83675240
H 22.83328640 16.36987994 7.28568581
H 22.80150541 14.76486432 7.31426836
H 29.23114591 15.46105659 13.93997252
H 28.57734158 14.93180472 12.61045519
H 23.77684343 18.26056510 6.58691078
H 25.57303335 17.46954565 6.71268698
H 23.59169862 17.10169129 5.42696775
H 31.03465099 13.64001118 9.89181693
H 29.88792050 12.99823047 10.83711415
H 28.97461439 17.37860446 4.80221063
H 29.26237917 17.01301566 6.32283103
O 26.43958524 17.68175512 7.26853026
O 32.03590706 15.24445317 9.60164763
O 27.28338159 14.01189889 9.47076226
O 20.58961902 15.20417859 5.56132333
O 25.26316950 14.97117573 7.82371283
O 24.78305069 21.55756800 6.12869322
O 26.43111481 21.99264081 8.32192977
O 23.90209166 15.76451461 9.87936539
O 23.32725759 19.59901118 7.16195342
O 29.16312503 13.47214278 7.48669310
O 28.11808083 13.52961491 11.94804006
O 22.59002276 16.34625452 4.22459463
O 30.71504766 17.14943855 11.49057337
O 25.39654449 19.57929021 8.96199070
O 28.34809613 17.21481022 9.48143148
O 24.69443699 17.85148273 11.13733295
O 27.18927021 18.07572168 12.00681150
O 30.44710927 15.93041581 7.13602693
O 22.23599722 15.56570110 7.57465740
O 28.88237809 15.76744490 13.07173208
O 23.99649052 17.28846065 6.36034417
O 30.29485883 12.94266283 9.95782917
O 28.63459616 17.49226300 5.71714698
69
i = 0, time = 0.0, E = 0.0;
H 24.61305152 17.19942015 5.51567344
H 33.81202454 15.88557083 9.26862639
H 32.86758785 15.58503305 10.38549493
H 27.99014330 13.54121648 9.43624693
H 26.69912244 14.27745742 8.94652184
H 20.62488460 19.12455253 6.71551943
H 19.39448094 19.47823768 5.83777802
H 25.41686931 14.82934211 6.95572369
H 24.77882137 14.63251700 8.35704368
H 23.62174634 22.34535352 4.89786389
H 24.74370062 21.26255761 5.26915726
H 26.62604039 20.68463020 6.30183828
H 26.56800608 19.82214551 5.05142977
H 23.10214266 16.27360775 8.88889898
H 24.05985498 16.73924753 9.97471609
H 22.83163063 20.76028939 6.40046012
H 23.30026900 20.12942013 7.78654400
H 29.93739213 12.06503637 8.41998351
H 29.98314732 12.81298281 9.90952319
H 27.69795481 14.09370127 11.52994160
H 27.22834297 13.16496075 12.67729052
H 20.66060544 16.21304271 4.80287770
H 20.64911414 17.76478893 5.03997738
H 30.72381059 15.54284925 12.52458373
H 30.43116637 15.85433767 11.01970003
H 25.26888877 18.45049936 7.40473111
H 25.49847938 18.82494671 8.90879461
H 28.46208792 15.48241197 10.04323987
H 29.00642444 16.82161557 9.49107988
H 26.30331259 18.50086358 11.29647733
H 26.42370253 17.14986157 10.77218193
H 28.37788729 17.58966094 11.75201754
H 28.52655191 18.89197078 12.60272748
H 31.56820521 15.22410231 8.01972244