78
i = 0, time = 0.0, E = 0.0;
H 6.47637075 0.91214684 3.51501937
H 5.38594152 1.97194003 3.47559983
H -0.03810718 3.91987405 1.81203157
H 7.37195747 6.12692863 1.48762076
H 3.25417315 2.84873282 4.11939872
H 1.39433939 4.39219150 2.40519763
H 10.77443263 5.77498255 3.75400289
H 3.23544163 -1.37902246 3.65844711
H 1.33225053 2.39127605 3.60555700
H 6.43144706 6.07159946 2.72935768
H 7.79611369 4.24771571 3.10454490
H 5.73382949 4.82146561 8.19056342
H 4.21590739 4.10714632 3.90627345
H 9.91119688 4.60957857 3.24094371
H 7.36005037 5.82257135 6.56686601
H 8.97823113 7.81697787 2.40657947
H 4.24861321 -0.16327233 3.42320968
H 2.23642914 1.16534515 3.80278163
H 5.24556563 5.85664320 7.21381633
H -0.48363075 6.44289978 4.60561395
H 8.03421501 5.21302653 5.32513558
H 8.30640497 2.90596186 3.95998546
H -1.95143617 4.91263194 4.53723034
H 10.06702728 5.88741716 1.73944365
H 6.20807514 3.16609188 6.77294925
H 9.38276028 8.29300035 3.83737593
H 0.37717251 6.43044313 5.88406111
H 9.94915315 6.91384661 0.53137908
H 5.48306794 5.03634675 0.79220435
H 3.25265504 5.24281301 1.48222075
H 9.49635908 6.71608914 5.64218193
H 2.50950748 6.28681065 2.50129027
H 11.00643678 7.14982276 5.77905211
H 11.42670673 3.59033369 2.97999617
H 2.11960620 4.78024678 5.31565935
H 4.70874357 3.84028176 1.14386718
H -0.98720781 4.78091899 3.40048622
H 1.19909814 7.40927628 3.99314889
H 3.17568909 6.03450362 7.12208296
H 7.70153709 1.84879185 5.22814779
H 9.01610280 1.18129509 4.53882629
H 2.44314482 3.55431763 6.19862709
H 12.11275662 2.52292795 2.18891709
H 3.89032160 7.29068236 6.34125534
H 5.43908373 2.62154093 5.54515005
H 7.21207384 8.01848375 3.46324127
H 11.03984780 -0.04030083 3.70174218
H 1.33899339 8.45004176 2.96454152
H 10.97238436 1.34613677 4.04021733
H 4.76336761 8.00818038 4.26935616
H 6.52101114 7.29554974 4.65402591
H 3.19275872 8.12162567 4.36077827
O 6.66996892 5.61668444 1.90871926
O 0.54466425 3.83391837 2.62439979
O 5.60009120 1.10715905 3.03369738
O 3.33932415 -0.41725181 3.81889335
O 4.26319547 3.15914195 4.17155464
O 6.02157915 5.14734173 7.33730534
O 10.71553564 5.16145884 2.95332878
O 8.44268306 3.98487613 3.80397528
O 1.98987589 2.05569405 4.23046503
O 7.90218339 6.09914130 5.77881772
O 8.80415912 8.55212889 3.09620791
O 4.60468329 4.63520926 0.56318248
O 2.53208769 5.35221641 2.15897730
O 9.45042410 6.55489745 1.26334819
O 10.37718826 6.70206401 5.18318066
O 0.12629413 7.04156372 5.11912818
O -1.57976364 5.43111743 3.80905740
O 8.05510002 1.50291768 4.36732614
O 3.91265961 6.71642552 7.17323638
O 6.26258861 2.42012987 6.14083079
O 1.99103905 4.44925423 6.22420950
O 1.89000634 7.74206368 3.30484483
O 11.61535985 2.63267528 3.01257316
O 6.33252919 7.56371193 3.71541205
O 10.63016881 0.51133950 4.37654493
O 4.02813198 8.18215659 4.90594010
78
i = 0, time = 0.0, E = 0.0;
H 10.09838279 0.15835676 1.78050708
H 9.05366115 1.23493929 1.98344383
H 10.66035499 -1.63067489 1.04768425
H 9.46968564 1.04127187 -4.43466113
H 5.74355568 -2.95543689 0.58869446
H 11.61409196 -1.04944329 2.23676259
H 6.73244846 -1.30150331 -4.75094093
H 7.33832527 0.48395910 3.51921718
H 6.18186829 -3.93026500 4.16945813
H 10.38765619 0.33100264 -5.53921222
H 8.74986713 0.68280058 0.24964440
H 5.64828881 -4.88920812 -2.59855599
H 4.28385879 -2.40654628 0.74700670
H 6.98684654 -0.12075497 -3.86276647
H 5.00485581 -1.13277213 -3.46167420
H 7.12778358 -3.30860424 -3.79708782
H 6.90137677 1.15814279 2.18532046
H 5.28079218 -3.24708355 3.06875608
H 6.71620126 -4.25204710 -1.63452338
H 11.55633411 0.04509694 -3.28963297
H 4.90113214 -2.51684127 -2.67770919
H 7.19377936 0.64008709 -0.35208520
H 9.74715227 -2.22446518 3.46427831
H 7.36919208 1.89007979 -3.42772071
H 3.91673037 -1.07989525 -1.43241808
H 8.43503165 -2.63061033 -4.31582153
H 11.53923636 -1.58317964 -3.57299059
H 8.09464961 1.06650765 -2.29558939
H 10.28293697 -3.48908265 -1.53892160
H 6.73184152 -0.90774308 5.43806789
H 10.89284279 -3.53753446 -4.69646049
H 6.32444505 -1.90773895 4.32007487
H 10.23195701 -3.82722662 -3.29083964
H 5.76136188 0.91774154 -5.00236727
H 5.29182541 -5.00347668 1.63566841
H 9.51130368 -4.69468414 -1.21290370
H 8.39325519 -1.85303407 4.09976988
H 11.16368726 -1.20714686 -1.33719767
H 7.28842419 -5.41223161 0.26330825
H 5.13383298 0.75131524 -0.64078794
H 5.61127043 1.99493736 -1.38285462
H 6.37972800 -5.58777651 2.67334151
H 4.67140158 1.67983987 -5.89533936
H 7.66052548 -3.86455257 0.04995579
H 2.75245226 -0.35985407 -0.69346320
H 7.82223001 -1.30185837 0.37254770
H 5.65418651 2.83807221 -3.91156350
H 9.66734826 -1.14865016 -0.82468482
H 6.22866758 3.98528999 -3.01462970
H 8.22434820 -5.26991052 4.63476499
H 8.31841753 -2.41087520 1.37736813
H 8.59369784 -3.88594290 4.01084682
O 10.41118547 0.75431367 -4.68785930
O 10.72082252 -1.38272872 2.04595622
O 9.79888750 1.03528385 1.34234741
O 7.57062886 1.17242761 2.91224382
O 4.86853617 -3.13542772 1.13286481
O 6.07857908 -4.04250463 -2.36233907
O 6.27479544 -0.43942704 -4.47845041
O 8.11981844 0.22113636 -0.47162890
O 5.43541300 -3.24165039 4.02796935
O 4.40459985 -1.66771806 -2.84992922
O 7.47258913 -2.67354379 -4.51153833
O 10.26939954 -4.43945820 -1.77425920
O 6.92828884 -1.11111680 4.46043227
O 8.00409948 1.17763859 -3.28778324
O 10.25153513 -3.21497792 -4.08282588
O 11.82928174 -0.87355350 -2.91300503
O 9.19556223 -2.45960814 4.24172637
O 5.75582171 1.54190569 -0.54543995
O 7.73821426 -4.76256512 -0.37954472
O 3.67560374 -0.73243100 -0.52815074
O 6.00172621 -5.66612403 1.78910631
O 10.45294141 -1.62517324 -0.68305902
O 5.38797738 1.81133582 -5.25453525
O 7.53493905 -2.19065660 0.75509236
O 5.93579773 3.04396180 -2.95330105
O 7.90560660 -4.63590916 3.98223386
78
i = 0, time = 0.0, E = 0.0;
H 3.07883688 -0.97081973 3.58673237
H 2.94648677 -2.30658567 4.51058313
H 3.31802506 -0.21604891 10.04848785
H 7.62104003 3.46363489 6.13099947
H 4.19536708 2.44840775 9.26972357
H 1.77042818 -0.09501970 10.01448150
H 3.86468375 1.11188592 3.43154473
H 2.45127323 0.00132103 6.87629718
H -2.34116148 0.62727739 9.08298973
H 7.06083815 2.11756577 5.57156436
H 5.25339193 -1.33299225 6.33587930
H -0.20799010 4.54318921 7.77192639
H 5.01381563 3.86694927 9.07414070
H 2.45248627 0.91445751 2.93893126
H 1.37119196 1.52127933 5.52027835
H -0.35265363 0.13841424 2.53181953
H 2.30219864 -0.85062328 8.14906809
H -1.71798809 0.11814403 7.77268709
H 0.34396034 6.08617092 8.02858927
H -0.75252694 0.90684181 5.50423028
H 2.57147274 2.31240005 6.16504060
H 6.68283328 -0.69399807 6.28385976
H 0.31002287 -0.74569040 6.45830846
H 5.48727247 0.66366388 4.95740458
H 8.14125180 2.56073237 9.22123536
H -1.84061414 0.31217074 3.13868924
H -0.56318033 1.60797730 4.05447179
H 6.09450828 0.98840756 3.49461074
H 3.11793072 -2.13300099 6.65903211
H 0.37421074 2.01738714 9.58377865
H -4.40329860 -0.96715700 3.75173390
H 0.08214053 1.42824963 10.95658915
H -3.77395890 -0.04123557 4.82193080
H 2.59319676 3.85064502 10.44399920
H -2.12654711 3.95621242 6.48983573
H 3.91941945 -3.54527695 6.49651743
H -0.82364797 -1.47132112 5.48670130
H 0.54475268 -1.99202633 1.60861137
H 2.06300164 4.39413621 7.15971067
H 5.98685228 1.34300766 9.25521824
H 5.19872018 0.59670943 8.13257752
H -0.88362710 3.02841717 6.19049676
H 1.24180407 4.55761428 10.06955011
H 3.31493906 3.86913666 7.85314669
H 7.35342250 2.30028742 7.89232061
H -3.25119498 1.16716125 6.68379907
H -1.15203482 3.10367362 11.58573200
H 1.17126301 -1.73850178 3.03298452
H 0.48082731 3.19207770 11.60734390
H -2.14852126 -2.09862878 4.16247518
H -3.26961902 1.91949720 5.30477582
H -0.71465840 -2.33680023 3.58418497
O 7.61946454 2.50174640 6.26933951
O 2.54560598 -0.69940369 9.79867140
O 2.64963944 -1.92113293 3.67463194
O 2.00143149 -0.85390701 7.16481800
O 4.11952340 3.48113649 9.15808148
O 0.57403951 5.15017331 8.25508317
O 3.36269485 0.58773037 2.76479250
O 5.73195096 -0.43292302 6.37623983
O -2.41555918 0.69341349 8.11396860
O 2.34925736 1.44534267 5.64964639
O -1.10279053 0.79995383 2.71031612
O 3.94644786 -2.58007608 6.28286850
O 0.31089884 1.12531768 9.98947251
O 5.59678159 1.36138148 4.24596127
O -3.53158060 -0.64733742 4.02285089
O -0.48649926 1.76719652 5.05828476
O -0.67067588 -0.70717406 6.14188508
O 5.08684382 0.89495697 9.07658009
O 2.84583562 3.86492395 6.93986746
O 7.22149999 2.52544647 8.90885088
O -1.14220816 3.93831390 6.58024402
O 0.32721805 -1.57455586 2.48400277
O 1.70752075 4.07646529 10.84125776
O -3.73642729 1.20708455 5.80712573
O -0.33826818 2.72496094 11.96029330
O -1.29459609 -2.54084944 4.38371512
78
i = 0, time = 0.0, E = 0.0;
H 5.44545281 4.79700355 8.64932042
H 5.72592252 3.15590940 8.87689798
H 3.61068660 4.04453893 9.82840325
H 2.79394081 1.21056560 4.50029347
H 6.66585309 8.58495673 1.37938783
H 2.15201369 3.49762578 10.21654439
H 2.04918066 3.72961227 4.31645072
H 4.94537104 6.61455425 7.66648888
H 2.59599446 6.93082304 7.72403626
H 3.95956312 0.41479873 5.23994145
H 4.65785527 3.77705139 7.19706443
H 3.29202519 7.80686480 4.19016120
H 5.58237874 8.70286052 2.46654825
H 3.10483011 3.18589808 5.23645478
H 4.58164333 3.10524455 0.99708213
H 0.93338700 2.53234974 6.07034697
H 6.43547140 6.50826166 7.29805168
H 3.29935800 7.16162708 6.24799631
H 3.72497762 6.37705303 3.64255089
H 2.41313989 -0.13331513 6.18335403
H 5.30603945 4.21446781 -0.00966288
H 5.02789066 4.26332015 5.62351762
H 1.16539693 1.55801446 9.87188253
H 5.15317006 1.84486197 6.06850912
H 4.88612819 6.91414432 2.11116496
H -0.19930967 3.07496668 7.04693123
H 1.43227445 0.33075323 7.41719927
H 5.60526907 0.59491555 6.93740065
H 4.62225738 -1.07054719 8.39045330
H 7.06902231 6.34375700 5.30549246
H 1.33703178 5.87302026 4.49388987
H 8.25494428 6.83578783 6.13907139
H 0.63028672 5.09240606 5.70596723
H 3.91519736 2.70937457 3.22123521
H 6.19413109 8.76775409 4.78631126
H 3.57880725 -0.03099901 7.95277217
H 0.84552786 2.63448110 8.79453075
H 6.92505484 1.71818809 9.80796119
H 0.42584610 5.42052056 8.21801388
H 6.14096887 5.52759173 3.65498272
H 6.81564914 4.28550562 4.42386813
H 4.95669962 9.69492806 4.62704543
H 4.60514859 1.36988563 2.85913571
H -0.84692521 5.73073476 7.39962656
H 4.69112885 5.33963805 1.73092740
H 0.50606243 6.22397603 9.92010936
H 6.91880855 1.99235508 5.07188798
H 5.88754847 0.73708978 9.03546430
H 8.24526913 2.77705882 5.07881490
H 2.51726400 10.49307850 5.98895784
H 1.90498592 5.41040922 9.64674162
H 3.36538978 9.34706629 6.73422596
O 3.04884024 0.27491976 4.75835197
O 2.77528920 4.29246426 10.30810341
O 5.01255128 3.83526133 8.91920826
O 5.76693454 6.16470393 8.00262926
O 5.68679296 8.38447406 1.52108784
O 3.12473534 6.86417578 4.36949753
O 2.56109869 2.90744115 4.43196760
O 4.42845440 3.69903197 6.19218009
O 3.35689561 7.33954862 7.21502076
O 4.52909669 3.95686827 0.47689021
O 0.48987453 2.41849015 6.99004186
O 4.53943100 -0.10687081 8.25109559
O 7.33004684 7.09825885 6.01126204
O 5.66767727 1.02636903 6.03475211
O 0.76171669 5.05460248 4.71825775
O 2.18091965 -0.29209378 7.15252062
O 0.76928927 2.47295586 9.77588622
O 6.47805690 5.22509655 4.56063123
O -0.19573450 4.96884506 7.49763520
O 4.89105181 5.99812720 2.50167474
O 5.57826602 9.10274178 4.09117639
O 6.50649071 1.48646493 8.93506551
O 4.55158745 2.30588424 2.58838786
O 1.21857735 6.12364248 9.25314785
O 7.44185709 2.64620589 4.53993719
O 3.34188283 9.96403283 5.96881161
78
i = 0, time = 0.0, E = 0.0;
H 2.95751639 -0.54943552 6.27167348
H 4.01589630 -1.01481655 5.21345517
H 0.83817186 -0.97281791 5.69776076
H 8.23793118 -1.95773575 6.68785201
H 4.90978005 3.47672527 3.94803572
H 0.69827266 -0.38104628 7.09879709
H 5.63013701 1.44248781 1.51673420
H 6.27209151 2.31285566 7.25007445
H -0.57378039 -1.17216808 3.77405733
H 8.02939858 -2.34624205 8.17026396
H 4.99844686 0.92316937 5.76787373
H 3.29430117 3.42753728 5.34879592
H 6.19678800 2.88547202 3.09525621
H 7.16835979 1.49063388 1.24288402
H 9.04213096 3.29963436 3.91717966
H 9.17158013 -0.39974769 1.82043976
H 7.09431733 3.20279010 8.39233419
H 0.87840208 -1.67139247 3.80056036
H 2.74223408 2.97702320 3.91075664
H 8.19219323 -3.25255912 4.27022889
H 8.65954586 2.62947668 2.58561400
H 5.93196702 1.97879489 4.98784367
H 4.54896755 -2.69031877 2.64419859
H 7.33737954 0.18828966 5.61580751
H 7.35887277 4.22606554 4.87800059
H 7.83647692 -0.76440538 0.91053894
H 8.41224330 -2.32355678 2.90897871
H 8.72396036 0.01955765 4.92499767
H 3.50814242 -2.03133063 -0.77753906
H 4.45213277 3.41746363 7.63519101
H 6.75441897 -0.35427440 -1.02705694
H 2.92826242 3.77923180 7.84746362
H 5.54859517 -0.43802175 0.00146204
H 10.86043422 0.57674167 3.97410830
H 2.76997887 0.68089347 4.21677446
H 3.84141822 -2.39546378 0.80423419
H 4.60266801 -4.16605050 1.98885301
H 6.62103321 -5.41563794 1.40513774
H 3.50426355 0.86530848 1.90643498
H 8.49105607 3.91678676 7.57426651
H 9.41146052 3.21217468 8.67359414
H 1.40018868 0.64077054 3.64945920
H 9.79169003 1.57466891 3.40926567
H 4.04824858 -0.20358713 0.85675743
H 8.30808888 5.29734996 5.17978042
H 5.18104550 -0.57968272 3.16699771
H 9.34458314 0.37595512 7.11564777
H 6.56068161 -4.38532502 2.74038705
H 10.00876715 0.18349571 8.44382757
H 2.64708580 -3.19404495 3.20838857
H 6.21443781 -1.58743006 3.82704675
H 2.54844574 -3.04254052 4.72917048
O 8.37713747 -2.71066816 7.31834492
O 1.25542079 -1.00884457 6.61902251
O 3.63811362 -0.19616752 5.63568798
O 6.17651850 2.82473931 8.08481544
O 5.89492490 3.33221668 3.97573417
O 3.41020270 3.51448691 4.38932526
O 6.46372524 1.87797604 1.83840289
O 5.91196089 1.16689511 5.50050456
O 0.35362670 -0.86168149 4.00459624
O 9.39643961 3.13413296 3.03144425
O 8.48741518 -1.11105720 1.59948649
O 3.96962138 -1.68632703 0.04520973
O 3.54287201 3.42396586 7.19078721
O 8.18654656 -0.32911467 5.67942828
O 6.50591091 -0.26840506 -0.11101228
O 7.86874979 -3.10396160 3.35875481
O 3.96103874 -3.38925046 2.16812999
O 8.64776191 3.82239132 8.54526438
O 4.28805833 0.62310903 1.30978083
O 8.15447731 4.37840249 5.44714201
O 2.22206258 1.15152597 3.56709555
O 6.02274376 -5.02546231 2.15800836
O 9.90248596 0.63452904 3.74994647
O 5.22173798 -1.41631330 3.62153529
O 9.48041564 0.84967567 7.93131608
O 1.96674691 -3.05303783 3.93439016
78
i = 0, time = 0.0, E = 0.0;
H 7.01208276 2.31165968 3.36744811
H 8.29525965 1.87921129 2.52298792
H 8.58865357 4.82906419 5.79133329
H 14.59796777 3.68091340 2.48984260
H 12.56372153 3.61882047 7.26996287
H 7.50814410 6.09862687 5.62946649
H 14.34797592 1.36250979 3.31660078
H 9.32484118 1.77575874 4.45129846
H 10.91619649 4.75001980 6.62066688
H 13.67682784 4.80960072 2.60085887
H 11.30834790 -0.42448271 2.21709122
H 11.54369743 1.75841662 6.56081657
H 13.16955257 5.09042516 7.58897228
H 14.41048564 1.42394886 1.69121930
H 13.28579772 -0.07700184 4.29163561
H 15.20648449 2.56132603 6.20201994
H 10.83815949 2.20116216 4.18401357
H 10.09799682 3.49700556 6.05165340
H 13.03268837 1.82547096 7.21548403
H 13.52141054 2.80938571 -0.11216029
H 14.36309259 0.48462770 5.30846629
H 10.28496010 -0.10095190 1.08582016
H 5.70190271 3.76843924 3.99871900
H 13.95683064 -0.41004469 0.11860544
H 11.13804630 0.42119914 4.59209182
H 15.55316312 1.47416870 7.25227701
H 14.08048628 4.17293267 0.60357313
H 12.62363306 0.27084884 0.54151706
H 9.79116344 3.35009626 0.70162730
H 7.69348680 0.44413864 4.64316198
H 14.61057868 4.48768718 5.50565922
H 7.29173554 -1.00530593 5.08940005
H 15.37076364 4.23873836 4.16664970
H 9.10301638 -0.61348261 8.12946351
H 10.56496904 6.59638666 1.80983517
H 10.42795756 2.72397660 1.83942429
H 6.08798640 4.41665337 2.72739218
H 11.97275429 4.30799606 -0.32393714
H 11.59468215 5.93440875 3.26146458
H 10.77197624 -3.17700629 4.80625477
H 10.91350612 -3.22920204 3.07657729
H 9.48002176 6.32259837 2.78930644
H 8.77692723 -0.63988815 6.58032383
H 11.95368723 5.12475720 4.65148580
H 11.31739586 -1.13926051 4.02399820
H 12.74579715 2.40263893 2.68655337
H 10.15903458 -4.01663656 7.02818453
H 10.60004900 4.47917442 -1.17326759
H 10.52090060 -2.49201689 6.78525384
H 8.94968013 4.35560350 2.42300720
H 11.97727847 3.77382317 3.00445109
H 8.22070813 5.13864959 3.73314255
O 14.61560794 4.65424323 2.34218707
O 7.79835984 5.22498693 5.28653865
O 7.76144343 1.69653827 3.36756279
O 10.19455055 1.91259574 4.91589781
O 12.79781828 4.54447395 6.85558738
O 12.05296569 2.01374482 7.37693124
O 14.27726713 2.00277930 2.52150318
O 11.14956814 -0.52905952 1.24249590
O 10.01127783 4.43254284 6.43543088
O 14.26398604 0.19146797 4.36564465
O 14.77474583 1.98099540 6.89302040
O 9.48782062 2.82102087 1.49564226
O 7.80210074 -0.20790058 5.36683410
O 13.60407663 0.44490494 0.38273847
O 15.31361764 3.95071688 5.11066015
O 13.70179168 3.82189742 -0.24475631
O 5.75839993 3.55498528 3.04999030
O 10.72258607 -2.76412975 3.90548035
O 12.21221424 5.30348225 3.72567259
O 11.71276348 -0.21402977 4.07163702
O 10.32244183 6.94187621 2.69736143
O 10.99308374 4.46762971 -0.24837885
O 9.36142008 -1.05121905 7.26970156
O 11.78214556 2.78855260 2.90371919
O 10.89363154 -3.40704271 6.72780745
O 8.47631970 5.19704134 2.75900413
78
i = 0, time = 0.0, E = 0.0;
H 4.95433987 0.80965065 6.08435444
H 5.01734452 2.18484271 6.61005512
H 4.70226965 5.23811263 8.79477354
H 13.12357383 2.75419845 6.84095569
H 8.67474961 5.03554840 4.79585720
H 4.26483575 5.01440868 10.23445057
H 13.53699562 3.92887861 4.77634624
H 8.30894060 9.04887099 5.35855349
H 2.79133143 6.30196517 6.76579061
H 13.28285835 1.22860806 7.30546299
H 7.02257413 4.21592431 8.09943644
H 7.31410785 5.30271573 -0.11209657
H 8.90711336 6.64145991 4.60576455
H 12.96444557 5.04747084 5.80353400
H 10.13588755 5.30091074 3.06223958
H 11.57474639 3.25284780 2.63138795
H 8.72376023 10.58010716 5.76072902
H 3.08417949 5.00910422 7.66390861
H 6.76447971 5.05877931 1.31447072
H 11.16156824 2.44346830 4.49473194
H 10.46456824 5.38437999 1.54895354
H 8.67190038 3.84561941 7.95565111
H 6.14336564 -1.15553690 6.68400526
H 3.80167895 3.32121514 4.77333163
H 7.51892262 9.20661054 7.47291240
H 11.79081120 1.84001578 2.36068940
H 11.04164272 1.54179977 5.67181565
H 3.34487181 4.68996419 5.32114722
H 11.39480448 1.68574147 8.40170812
H 5.20523097 5.71547565 4.82484634
H 4.75458852 4.56085037 3.17786357
H 6.59233431 5.25708794 5.06687859
H 5.90436776 3.74161421 2.49983481
H 10.77321781 6.10821798 5.41026364
H 6.94163805 7.19662250 4.17812863
H 10.76588546 1.62555461 9.78050316
H 7.03160285 0.18546405 6.89958288
H 7.72410414 1.96573478 7.78305324
H 8.14981591 3.21197549 1.05999880
H 6.68763968 6.80591946 7.86889961
H 5.80269815 6.14996971 6.90640681
H 7.42095750 8.10298571 3.01843478
H 11.64406087 7.04277263 6.40821170
H 8.57247376 2.05039590 2.06128853
H 6.68451184 8.97705226 8.76118564
H 9.13774693 1.58267559 4.63246266
H 10.94423357 4.94715979 7.54115018
H 8.91020560 0.95120361 8.06644646
H 10.73339312 3.37485447 7.22728485
H 7.89310800 3.58671593 6.20685369
H 7.90430810 0.49721170 4.71788626
H 7.66938261 2.90693676 4.77523143
O 12.81780969 2.07883986 7.51378700
O 3.85442689 5.06152882 9.31494884
O 4.46492964 1.68888226 5.94817307
O 8.64584117 9.64717371 6.08952629
O 9.39265000 5.74388168 4.59073827
O 7.61195331 5.14104730 0.81631202
O 13.51073692 4.17714504 5.72607876
O 7.69178128 3.51626084 7.75642421
O 2.91680929 5.31287565 6.73528244
O 10.60958909 4.80773836 2.32414033
O 12.01094378 2.45668006 3.08472353
O 10.59662946 1.34338739 8.83005824
O 6.10241025 6.12472201 5.09182853
O 3.78277892 4.27562951 4.50885232
O 5.27003352 4.48387104 2.29368328
O 10.57572494 2.33309713 5.33044973
O 6.54576695 -0.41770714 6.23089173
O 6.08550486 6.01831428 7.87874003
O 8.51562062 2.31607717 1.10830550
O 6.95088102 8.53122383 7.94603076
O 7.70276333 7.80842056 3.89030715
O 7.91941417 1.01098792 7.99651874
O 11.44636528 6.11659852 6.16489373
O 8.34300107 1.23165498 4.21584668
O 10.50966316 4.11243929 7.86197291
O 7.63010586 3.80629054 5.24439434
78
i = 0, time = 0.0, E = 0.0;
H 2.49037522 1.28545620 5.52980371
H 2.27841829 0.23199831 4.30234136
H 0.64882604 4.02352426 5.78652355
H 6.79726526 -0.77295058 4.92958052
H 2.38541650 4.69559030 1.36993257
H -0.85688300 3.50844902 5.48915336
H 5.48906407 4.05160979 -2.00802508
H 3.16667424 5.44671780 5.41467790
H 3.96614691 7.85301064 5.61836579
H 5.32427216 -0.68786093 5.53984708
H 4.56307847 -0.91722881 2.05681262
H 1.31665360 4.53147540 -0.74894374
H 1.29524100 5.76322763 1.20570551
H 3.98840345 4.11566835 -2.43144726
H 3.89625657 2.51396946 0.17433639
H -0.28351762 -0.01643099 2.83358412
H 3.19591784 4.31247373 4.47653285
H 3.61764572 7.45924134 4.06391279
H 2.33845723 3.68868052 -1.34986828
H 2.29417119 -2.32145778 3.37345963
H 4.40838335 1.14344387 1.05101921
H 5.32424919 -0.22995566 3.22658815
H -0.10588647 2.21887308 1.58176996
H 0.94156222 -0.81903834 7.85526622
H 2.79994426 2.26038830 7.79489976
H 0.43775514 -0.05878750 1.32619392
H 1.05843161 -1.45796847 2.94502024
H 0.98544001 0.75790183 8.01994954
H 0.41450699 0.87855456 4.74288701
H 0.22578372 3.10103970 7.82532010
H 2.17292912 1.10148133 0.25262177
H 0.25288165 2.73738790 9.35060944
H 0.78373916 1.53216655 -0.28966395
H 3.25664837 2.62678164 2.24502513
H 3.56416201 6.88341233 1.56136322
H -0.54446732 -0.36501858 5.10516500
H 0.95188411 3.05368322 2.45064998
H 1.09301431 -1.92593707 5.82395351
H -0.59427438 4.58315233 2.30502106
H 4.08335517 0.97105797 10.00867652
H 2.62589025 0.71728634 9.38254502
H 2.49800689 7.83281000 2.17085345
H 2.32799380 2.40749122 3.52671545
H -1.62895655 4.96993869 3.33288259
H 3.26760993 3.13098544 6.43928116
H -2.58827967 2.37632641 4.48016372
H 3.11081052 -0.86870204 7.00620423
H -0.23874230 -2.50179747 5.94092944
H 3.82450097 0.46923843 6.84457790
H 1.09401604 7.41894369 4.27203146
H -1.28317804 2.53278632 3.61196853
H 0.23153955 6.93958768 3.06852464
O 5.86111388 -0.76366964 4.68634108
O -0.22967151 3.84325662 6.19077232
O 2.03557052 1.13362299 4.61292922
O 2.82980503 4.52076458 5.31061193
O 2.04344483 5.32534258 0.71476220
O 1.37960985 3.80424497 -1.47234705
O 4.57834869 3.79929973 -1.69361264
O 4.96118422 -0.06872868 2.29667973
O 3.43350646 7.28822994 5.04072486
O 3.61887309 1.76267548 0.77469180
O -0.06813940 -0.60136995 2.02030518
O -0.56671554 0.51496265 4.58641147
O 0.72919196 2.60702386 8.49751478
O 1.50036748 -0.06987389 8.06442196
O 1.22585430 0.73915944 0.07782415
O 1.69018128 -1.64933472 3.70884437
O 0.00906524 2.97555482 2.13574625
O 3.19186561 1.42627356 9.83022611
O -1.04605576 5.41365717 2.63616275
O 3.23739549 2.23206703 6.88843947
O 3.42867350 7.52215029 2.32829344
O 0.19240263 -1.63117184 6.16590881
O 2.64210726 3.15433810 2.93121341
O -1.94071771 3.08156028 4.19912757
O 3.94803159 -0.47787901 6.71722888
O 0.87292200 7.64286289 3.30629578
78
i = 0, time = 0.0, E = 0.0;
H 4.59993303 6.55374641 7.63582052
H 6.15385097 6.26135922 7.87662852
H 2.95783676 1.17993646 5.07107041
H 9.93199225 2.65450697 4.80227874
H 5.01600359 9.85183746 6.94191483
H 3.75979231 2.31369501 4.24574466
H 7.14049948 5.56282329 3.98944622
H 3.66499821 6.28496539 9.83578681
H 0.49070527 10.07598048 9.13852101
H 9.74183075 4.24570603 5.03064944
H 4.08785072 4.96790348 4.87678341
H 4.43330203 7.83436249 3.65558035
H 3.63024668 9.84268108 6.06502205
H 6.65683484 7.01383421 3.58315001
H 7.61605537 5.75600153 1.60854802
H 1.50596740 3.36841473 4.57874406
H 3.02210236 7.50827428 10.48457753
H 0.54729238 8.55077566 8.97883155
H 4.89090924 8.57865835 5.00620614
H 2.38024830 7.38089435 2.91686567
H 7.60069442 6.41089665 0.24298955
H 4.45255655 6.51890609 5.15513406
H 1.12760830 6.42490542 9.10726357
H 4.26581261 3.16324007 6.48896088
H 7.74727827 9.00892424 6.21177977
H 0.39218237 3.14798332 5.59003601
H 2.75823839 8.74809364 2.57069565
H 5.05602935 3.19598276 7.79121335
H 4.15187238 5.74313030 1.57595380
H 4.54748969 4.08281657 2.70134164
H 1.26541454 9.78184058 4.43225062
H 5.55625701 3.80272210 4.03422820
H 0.49508422 9.95758138 3.08504290
H 7.87626399 3.47763535 5.27200663
H 2.61329463 9.43314164 10.77080095
H 5.39193180 5.00230939 1.03840595
H 0.65760553 6.54499550 7.66917083
H 0.37142531 5.10133999 3.33329532
H 1.35897915 9.75564181 7.17549927
H 8.05158637 6.66023734 7.12724818
H 8.26076942 5.21089256 6.68941508
H 3.04209814 9.22275414 12.27912492
H 6.51528678 3.71175152 5.91017241
H 1.68649789 8.56127762 6.16904181
H 7.35551742 8.95337285 7.71720871
H 2.45562882 6.29401387 5.74218417
H 10.50939881 5.90555404 3.39932135
H 0.08256143 6.10969288 2.22418836
H 9.14997958 6.30400661 3.98540389
H 5.22237260 9.55353989 9.32352394
H 1.00055645 5.60637795 5.59275845
H 5.29994652 8.17667585 8.44305765
O 9.56675112 3.34366140 5.43152986
O 2.81931485 1.94954877 4.47990866
O 5.27261135 6.57858526 8.29074923
O 2.78507846 6.60230491 10.19124363
O 4.59275846 9.98951094 6.00566695
O 5.12618047 7.83975580 4.35293623
O 7.25594284 6.30307691 3.24975552
O 4.06157779 5.67339578 5.61219308
O 1.19531260 9.34709613 9.09662206
O 7.30031456 5.62378284 0.69114056
O 0.68449062 3.79490293 4.94762683
O 4.46651407 4.83818892 1.34250692
O 4.62091654 3.75525391 3.65925443
O 5.16251329 2.99234604 6.84082735
O 1.36023663 9.86251953 3.47364804
O 3.18363846 7.87208311 2.65445723
O 0.37705297 6.77100687 8.54856862
O 7.69488068 5.78076705 7.26720555
O 1.68500017 9.53573738 6.25540182
O 7.93670113 8.51676721 7.03401186
O 3.41413780 9.31134973 11.34258812
O 0.81027851 5.73716630 2.75222514
O 6.98540593 3.90907508 5.04758130
O 1.46934606 6.43325990 5.86152286
O 10.10344707 6.12965587 4.27685993
O 5.69937605 9.13345574 8.53976439
78
i = 0, time = 0.0, E = 0.0;
H -4.32891692 2.43901407 5.70825846
H -3.76140950 1.64603569 4.42499972
H -3.74003478 1.63124024 1.98787728
H 2.01694399 -0.78192503 4.42240270
H -4.45298762 -0.05865311 -0.64182517
H -2.40027826 1.04948480 2.39851549
H -0.43147870 -2.35984608 2.09645301
H -4.14312466 2.27643294 -1.12892979
H -3.97678135 -1.08702736 5.47615892
H 2.45334507 0.67347401 4.11634811
H 3.99199222 1.69804294 8.09306339
H -1.84950504 -1.79134832 -3.28057715
H -3.83740753 -1.47807086 -0.94377338
H -2.14961313 -1.87823771 2.33863041
H -0.69317133 -0.12061496 2.07422489
H 2.90209466 -0.82365576 1.18003263
H -2.83862207 1.64830863 -0.71157998
H -3.58351372 -2.05019540 4.37649781
H -0.97064255 -1.89410536 -1.91943823
H 4.72441313 -1.47912915 5.13164603
H -0.29193781 1.32764908 2.35213990
H 3.44473739 0.36814533 7.47002305
H 0.26999143 -1.85894676 5.47288533
H 3.00456868 -2.09165943 7.00159909
H -1.28883213 0.45839503 -1.50033199
H 2.76083657 -0.85863581 2.71811774
H 4.72443934 -2.04548063 3.75759871
H 2.05422376 -1.34578035 7.98935877
H -0.08013465 -1.06134245 9.23532903
H -1.19859381 0.14426286 5.74662112
H 1.43829467 0.78693016 0.15575299
H -2.04916062 -1.16204023 6.10013790
H 1.61563069 -0.39061797 -0.87944104
H 1.72302519 2.95178140 2.98414339
H -3.73746064 -0.57726359 2.38569535
H -0.38317164 -0.64094657 7.81743215
H -0.26666217 -2.10371552 4.02658208
H 1.80550933 -3.63371529 4.62709091
H 1.30644866 -3.00354775 -1.78759692
H -1.32457061 2.19426604 5.01434117
H -0.07783184 1.87565543 6.07217329
H -4.17722022 -1.60868253 1.33644143
H 0.62706696 2.34573207 3.90044366
H 0.96423587 -2.75652569 -0.24221188
H -0.82936608 1.13579224 -0.21496924
H 1.31077038 -4.06570804 1.71414864
H 0.74715107 1.16611733 8.13526136
H 3.39483785 -3.41009680 4.61859780
H 1.98549216 1.66373572 7.29908378
H 1.99845923 -6.22968020 2.67109258
H 1.75809886 -2.54452257 1.80441818
H 2.59820279 -4.99477759 3.31495926
O 2.79292238 -0.24661508 4.20150013
O -3.32442096 1.17746930 2.73546613
O -3.58629132 1.87239821 5.38803169
O -3.77012636 1.65212708 -0.44687503
O -4.64308835 -1.03384805 -0.56906045
O -1.73625162 -1.50527866 -2.36732485
O -1.15384942 -1.81382883 2.51586969
O 3.60164989 1.31566548 7.27834018
O -3.60143483 -1.99160136 5.37303441
O -0.85833165 0.79375732 1.74993923
O 2.96175683 -1.42213835 1.92453469
O 0.28691459 -0.53435411 8.52665854
O -1.37700605 -0.48346355 6.49676963
O 2.98123927 -1.40675269 7.71051376
O 2.10721266 0.12056255 -0.13858132
O 4.76498056 -2.38812901 4.69263063
O 0.52050587 -2.14416069 4.56779445
O -0.40555359 1.81486498 5.10793242
O 0.78298703 -2.46370938 -1.18069913
O -0.93906883 1.29070984 -1.18311781
O -3.80451535 -1.58568997 2.30694217
O 2.65182601 -4.09118460 4.64386676
O 1.15100027 2.13755585 3.04704299
O 0.98486000 -3.14151170 1.46820268
O 0.99457810 1.81308490 7.38336981
O 2.23689051 -5.34541483 2.42335081
78
i = 0, time = 0.0, E = 0.0;
H -1.52004185 4.27852245 8.98475286
H -0.64846605 3.88258462 7.78965846
H -2.67971174 5.79201084 5.61234408
H 3.30869233 5.94854992 3.30792609
H 4.34519688 3.96304025 7.70329951
H -3.34438406 5.07143093 4.38005753
H 1.65708471 4.16788010 3.35883452
H 3.86371523 9.02549444 9.71986500
H 6.28102992 7.20029083 6.26931136
H 2.90562320 6.25452198 4.84060987
H 0.32566119 1.54244809 6.17929641
H 1.56965135 9.44685268 7.91388167
H 3.91806791 5.42809420 7.65590476
H 0.81998590 3.00077239 3.82273682
H 5.13538069 4.64578652 3.00023974
H -0.22973506 6.10689232 8.37614842
H 3.66158058 8.00832367 10.80819448
H 5.19179530 8.19973110 5.76477785
H 2.52725967 10.26834945 7.07573423
H -1.95625681 8.15406257 6.01883635
H 4.52884640 5.44826041 1.68490856
H 1.80824044 1.99599413 6.50101600
H 7.30835829 5.75788596 7.12342988
H 2.45260866 0.46444664 5.40456424
H 5.10926663 2.61493287 3.65687700
H 1.12133624 6.84653489 7.84348509
H -0.88177183 7.26657716 6.57295907
H 2.89341357 -1.01851375 5.58602805
H -0.36424422 4.27910718 5.35543568
H 7.23714412 10.74831804 7.07391529
H 2.93295603 7.61064287 7.07902458
H 6.91940863 9.26261895 7.22646735
H 3.30233153 6.87241432 8.26962347
H 2.82827889 1.98383779 3.20809272
H 5.58183550 10.26287322 8.91433065
H -1.74897991 3.78725937 5.55203996
H 5.89174844 5.34075856 7.41030706
H -0.58410508 6.28750124 4.64102040
H 3.39612980 12.97450496 7.83400530
H 4.00359334 2.38659812 5.84573721
H 3.23487986 3.42964770 5.03061262
H 4.17333088 11.05961063 9.11713807
H 3.58256835 0.66172341 3.05721706
H 2.22021008 11.97300179 8.47235031
H 5.85863055 3.58176799 4.75252067
H 0.87156197 10.57400950 9.79240927
H 5.48523661 1.58569234 5.22996270
H 0.90505974 6.03199171 4.01344447
H 4.56903771 0.74494937 5.91561271
H 0.28675620 8.29040705 9.10149614
H 0.33100512 11.99833032 9.76456141
H 1.71511975 8.32078981 9.68351628