75
i = 0, time = 0.0, E = 0.0;
H 33.74518126 17.00065216 -7.14746483
H 30.96277411 13.74028634 -0.32195715
H 30.75248344 12.55615012 0.63450332
H 30.88166332 6.73508638 5.61987194
H 31.97075519 6.86008301 4.48107195
H 30.14280008 12.68911009 3.83319619
H 30.04091129 14.02215621 3.11453686
H 34.22524326 7.54346651 0.27998774
H 33.87653717 6.08601935 1.00404986
H 35.06251362 18.09595535 -3.97214832
H 34.94996825 16.82196967 -4.90230673
H 37.06632527 14.47714064 -3.34109940
H 36.47108910 15.83962854 -3.50480055
H 33.86609007 9.13029658 1.82317913
H 33.70856192 10.81963887 1.69130627
H 33.49489228 16.49613485 -3.16950220
H 32.00341734 16.10310311 -3.73700418
H 31.70590219 16.95869551 -5.62642061
H 30.19001892 16.98302968 -4.97232306
H 32.37623829 5.35266275 5.85819064
H 33.77212575 5.44282184 6.50576402
H 28.85794873 13.40914532 0.94242668
H 27.60221490 14.20811495 1.06228876
H 34.18954364 3.93180508 2.52558352
H 33.10904023 3.89073231 1.51365749
H 35.71839934 9.64807537 1.76291651
H 37.10302314 9.91066480 0.95661951
H 36.16293415 7.44778728 -1.11988813
H 36.06382739 8.61837518 0.04801942
H 33.82194715 7.67106574 3.71636062
H 32.73310811 7.54134462 2.53010649
H 35.26118793 5.76717317 4.42292456
H 36.36873853 6.82544342 3.93506537
H 33.09424912 9.49242710 -1.90700495
H 34.55643022 8.95718181 -1.88168020
H 32.08853930 12.83117496 2.41066246
H 32.96522137 13.23525319 1.23629517
H 35.09778864 3.32342384 4.75826373
H 33.77865085 4.14077492 5.23337829
H 32.66003458 15.20114922 -1.49975078
H 32.54848407 17.88293757 -7.59290302
H 32.52199408 15.86944287 -0.22070371
H 27.88461286 12.36411266 3.00932050
H 27.82511825 11.04893227 3.76945437
H 33.25581724 14.48737057 -4.02439337
H 34.05980337 13.14513474 -4.44171094
H 34.66061636 15.10139777 -5.61342315
H 36.00478403 15.71587291 -5.72487938
H 34.95805313 10.95452886 -3.06850120
H 35.83034596 11.33401679 -4.30887126
O 33.14545200 17.65963875 -6.83189461
O 30.25239998 13.12725777 0.02424526
O 31.33804509 6.20521161 4.98526530
O 30.73286574 13.38941366 3.44292270
O 33.58970524 7.03811329 0.85802560
O 34.93924152 17.12619396 -3.84644437
O 37.05479991 15.22342318 -3.94625547
O 34.33442604 10.02846439 1.95635767
O 32.73916580 15.87295951 -3.05169915
O 31.02898702 16.49659275 -5.05699838
O 33.01642471 4.84070375 6.44106256
O 28.03575127 13.47377087 1.55457245
O 34.03748610 4.13964477 1.58905599
O 36.63874627 9.18045686 1.42694291
O 35.59301517 8.08737543 -0.69897233
O 32.86027070 7.59807767 3.50714516
O 35.54580601 6.73449187 4.54071043
O 33.93224810 9.48219857 -2.45244410
O 32.70133158 12.43094796 1.68144301
O 34.44050127 4.00718565 4.42935121
O 32.57331462 14.98822021 -0.52182948
O 28.37906111 11.83852734 3.76565688
O 33.52449001 13.93787006 -4.79620353
O 35.13406732 15.76730500 -6.14719749
O 35.42529327 11.71253012 -3.50502375
75
i = 0, time = 0.0, E = 0.0;
H 34.49386506 16.01924794 -7.47268654
H 31.01198121 12.67259236 -0.65750129
H 30.53843740 11.86918633 0.45969089
H 32.13191677 8.19152372 6.28425078
H 32.22271033 8.18900622 4.76206783
H 30.70123823 13.00401669 4.55435824
H 29.76370226 13.49970074 3.54238129
H 30.91606876 6.16419084 0.92667350
H 32.07506890 5.21196862 1.32898389
H 35.15721308 17.45441586 -0.91249451
H 35.76344930 16.46348620 -1.96375358
H 37.66316097 15.14480311 -1.66317691
H 36.48123306 14.24890168 -1.05785810
H 32.96168206 10.24340748 0.65586195
H 32.53819988 11.59624765 1.56378270
H 33.66228705 16.17821888 -1.99695642
H 32.79528169 16.14925270 -3.32303657
H 32.02837535 17.51073466 -4.97507145
H 33.12055246 16.53030982 -5.60897589
H 32.61593569 5.81611108 4.53885354
H 31.65345335 5.54519412 3.38194474
H 30.65710051 13.87655845 1.23778343
H 30.24007193 15.24018892 1.75061533
H 33.53861996 3.89140053 1.03676324
H 32.32311714 3.00651940 0.62830735
H 35.36374593 9.76997033 0.69197972
H 34.51080095 8.60796622 1.21449377
H 36.11579996 7.18499906 -1.16668098
H 34.88795608 8.26867693 -1.10987774
H 32.05181911 9.60427882 2.53252248
H 31.22759385 8.28779699 2.58268846
H 33.44337385 7.66378387 2.88877324
H 34.81432670 7.53633397 3.50296565
H 36.46700864 9.55452127 -1.31912497
H 37.46632773 10.59263935 -0.75273834
H 32.21271496 13.62599484 2.34883805
H 33.68588667 13.15410280 2.38688402
H 34.94041450 5.04492570 2.41685892
H 33.64791976 4.43738124 3.07242791
H 32.95089318 14.26401799 -1.83715526
H 34.51059861 17.47872009 -7.34620394
H 32.82186242 12.98511053 -2.54547438
H 29.33736042 10.12782356 3.89955628
H 28.70209019 11.25905164 3.29464326
H 34.42587941 15.04476945 -4.01086281
H 35.66120167 14.49783425 -3.41498897
H 35.89172866 14.00068820 -5.86549936
H 35.80198185 13.69518285 -7.42108741
H 35.74028280 12.14743464 -1.14654478
H 34.47364828 12.93784933 -1.12215385
O 33.83876258 16.79277673 -7.47034174
O 30.26135191 12.66380140 -0.03425671
O 32.67138049 7.76406282 5.56082134
O 29.84053188 12.74357004 4.15532958
O 31.38733156 5.84432907 1.69932354
O 35.02255579 17.10246085 -1.78657611
O 36.72711842 15.11392577 -1.42360121
O 32.20454400 10.69059064 1.15930988
O 33.02845891 15.63296534 -2.53724512
O 32.29406814 16.58546921 -4.98703843
O 32.16026261 5.09483535 4.12347421
O 30.69435637 14.45723539 2.04119901
O 32.79063847 3.81793489 0.35976629
O 34.53772444 9.29953707 0.51791620
O 35.66510399 7.87455667 -1.69193731
O 31.92960075 8.72465376 3.03078563
O 34.38778535 7.37542120 2.62101166
O 36.52150943 10.41738706 -0.88473200
O 32.79260673 12.83227662 2.43026184
O 34.39632073 4.21163296 2.40838585
O 32.65685196 13.30059153 -1.63011599
O 28.63836742 10.29219132 3.21200682
O 35.09691963 14.31656213 -4.16643285
O 35.64887311 14.36879428 -6.76501560
O 35.41176760 12.95686018 -0.73404432
75
i = 0, time = 0.0, E = 0.0;
H 33.53799337 16.08825921 -7.57419613
H 29.53522854 14.84966036 -0.51707780
H 28.14981280 15.26909413 -0.02282315
H 33.70815335 7.86608728 6.28252237
H 32.85028837 7.61731744 4.99469549
H 28.98490632 12.81431695 2.55160863
H 29.05613139 12.38285673 3.96902823
H 33.00814147 5.00006193 1.59790512
H 32.62903343 3.85367963 2.49255750
H 36.03509842 17.86084822 -1.75054491
H 35.87125193 16.31398888 -2.06525419
H 35.58268248 14.21165019 -1.25379096
H 37.03560476 14.73799395 -1.67002340
H 31.46448087 7.82121697 0.96784669
H 32.66485810 8.14386567 1.92675228
H 33.79614695 17.22054392 -2.24775029
H 32.56769140 17.06265162 -3.16002393
H 31.17109942 16.78747861 -5.05520515
H 32.40397517 17.16009747 -5.83174505
H 33.31140197 5.75478774 5.75798395
H 33.11027345 4.18423318 5.96083819
H 29.86679786 14.82406754 1.61517217
H 30.91695144 14.88684962 2.77155460
H 35.69803682 4.48037404 2.37595674
H 36.79239465 4.51031774 1.31394945
H 33.89939980 7.41452980 0.16069648
H 35.20059846 6.36433691 0.29997856
H 35.35571308 7.50342395 -2.73487567
H 35.31452516 7.62931922 -1.17909472
H 34.02315641 6.88710878 3.54568624
H 32.65050126 6.31051416 3.05580674
H 36.26084544 6.47292300 3.40486353
H 35.58637256 5.93344271 4.70968395
H 35.64688154 9.75196866 -2.38755662
H 35.99031070 10.56578818 -3.69303349
H 31.53478215 13.93133308 -1.06308395
H 31.53681558 12.41168323 -1.62738749
H 35.00841145 3.02725073 3.98087200
H 34.15495281 4.30211304 4.23253069
H 31.61177893 16.19397261 -0.96370097
H 33.41516733 17.65303976 -7.66510075
H 31.37647810 15.33962814 0.29029670
H 30.07856192 10.35728962 5.72298269
H 29.18993685 9.82235377 4.45430546
H 34.48732878 15.81749672 -3.98698826
H 34.61992369 14.34061728 -3.65681091
H 34.99972684 13.99036020 -7.64095848
H 34.66826772 14.68983585 -6.25698399
H 34.89369600 12.20935398 -2.37853449
H 33.59866597 13.10780722 -1.64492393
O 32.87106035 16.81459591 -7.53865158
O 28.78660185 14.52280738 0.12522276
O 32.90127632 7.42274075 5.96736421
O 28.58015158 13.05669053 3.41027428
O 32.13803950 4.57014179 1.97630150
O 35.63868632 17.24550924 -2.46395307
O 36.29769497 14.93653690 -1.04594157
O 32.32070774 8.32816232 1.03888321
O 32.82517030 17.05400046 -2.20899498
O 32.07673134 17.11132860 -4.89878589
O 33.79410293 4.86109261 5.77337866
O 30.83118944 14.83312184 1.85377764
O 36.13185470 5.03825563 1.71823072
O 34.47502984 6.72930039 -0.25796748
O 35.69941488 8.08703095 -2.02759132
O 33.08682128 7.12272992 3.29527273
O 35.63986030 6.78990411 4.18230684
O 35.88028508 10.63965597 -2.74391896
O 32.00128076 13.05469702 -1.00103896
O 34.56247743 3.80293578 3.47237887
O 31.06001120 15.43057267 -0.71239350
O 29.38576918 10.62117097 5.07299946
O 34.64815675 14.98656047 -4.47176933
O 34.68203362 14.81537142 -7.23936445
O 34.50187023 13.14038760 -2.16942592
75
i = 0, time = 0.0, E = 0.0;
H 32.68933814 17.15814578 -6.46996192
H 30.13628519 11.73248765 0.03018819
H 29.83398795 11.01509062 1.36970896
H 30.56301038 6.24600683 5.23332580
H 31.82448341 7.15351846 5.13053606
H 29.82404793 13.20988520 3.65435511
H 28.76452112 12.21018095 4.12161036
H 31.72452822 6.85106139 0.97520257
H 33.07651363 6.05828171 1.55863266
H 34.71825143 16.61853785 -4.75471724
H 35.61118322 16.36940920 -3.56361092
H 36.50527035 14.22620956 -3.55517894
H 37.95648041 14.77730260 -3.22766201
H 34.97626829 11.39786434 0.38028460
H 33.45189935 11.58529721 0.07043082
H 33.45677082 15.52833909 -3.16465275
H 31.96531957 15.29871341 -3.65925065
H 30.97957782 16.63121138 -4.80477250
H 29.92166641 15.44926606 -4.59386147
H 32.57637637 5.25153582 5.37518785
H 33.52131013 4.17047385 5.95956758
H 29.69500419 13.38366830 1.38524677
H 29.94696733 15.00127582 1.82751775
H 34.65520929 4.86178935 2.39237122
H 34.19566307 4.06427726 1.11901222
H 34.08757712 9.51295646 1.19519934
H 33.62456793 8.07344156 1.45910612
H 35.72792077 7.62622830 -1.46653438
H 35.29259188 8.25342686 -0.11301651
H 33.28326569 8.90071112 3.94843625
H 32.42414991 7.93672313 3.09183022
H 36.90437987 7.93978311 3.46192644
H 35.42763526 8.20850618 2.93407072
H 36.12046478 9.97846925 -1.15409235
H 37.39476878 10.87329323 -1.36679150
H 31.74127312 13.98707955 1.72106014
H 33.18691320 13.12461453 1.65537580
H 35.65601815 5.75877257 3.92092163
H 34.67235185 4.67729771 4.43832387
H 32.80499309 13.41532108 -2.08672335
H 31.89281748 18.37569281 -6.20451553
H 33.02661284 13.40409388 -0.50613481
H 30.74074411 9.60634764 3.19657389
H 30.29302367 11.12046025 3.40620581
H 32.89567184 13.93172344 -4.61717723
H 34.14664534 13.14245162 -4.94943615
H 33.94244730 15.01634269 -6.09175344
H 34.98674543 15.83463901 -6.94637689
H 35.77298010 12.04607695 -2.65777623
H 34.59199391 13.05467737 -2.76250198
O 31.77430442 17.41162701 -6.26391297
O 29.45916474 11.69019147 0.75902728
O 31.39279122 6.40858201 5.63936421
O 29.68060278 12.46963291 4.33555262
O 32.46755279 6.89669290 1.59354646
O 34.73606174 16.76071541 -3.75509105
O 37.10134855 15.03949262 -3.62902624
O 34.08740128 11.22545966 0.75614163
O 32.75386829 14.86821259 -3.20684714
O 30.55111678 16.02167888 -4.15792428
O 33.21297334 4.50550280 5.11281569
O 30.09924886 14.03210651 2.07497084
O 34.02869926 4.91056911 1.61518747
O 34.52249712 8.61187183 1.46830195
O 35.81069361 8.43050760 -0.94258328
O 32.41691770 8.44485368 3.91782064
O 35.97506521 7.92256656 3.73541319
O 36.43157902 10.88610540 -1.33610711
O 32.77198231 13.97910748 1.48662753
O 35.56118727 4.74888565 3.87153594
O 32.97088166 12.83017301 -1.28764648
O 30.18608468 10.29323788 2.83667073
O 33.41223350 13.57592399 -5.44861847
O 34.14708258 15.95368705 -6.53373126
O 35.36843864 12.69978457 -3.27576540
75
i = 0, time = 0.0, E = 0.0;
H 33.46481472 18.74418639 -6.58578077
H 31.15148289 12.65067420 -0.94622013
H 31.06360694 11.23805600 -0.32211099
H 32.30182968 7.38393611 5.86396168
H 33.10484836 7.27355883 4.48237525
H 28.47636751 12.20130480 3.72343196
H 28.24495708 13.48798931 4.43109328
H 33.08730624 5.10950426 0.98641787
H 34.37520874 5.62670389 1.61065273
H 35.28816305 17.33874268 -2.00434159
H 35.32604906 15.82007066 -1.59736360
H 35.91909514 13.73912454 -1.37232742
H 37.16563260 14.72283166 -1.28597295
H 33.40217311 11.17928569 1.81351545
H 31.98548630 11.60142258 2.09305934
H 33.23724866 16.29090539 -3.04721985
H 31.81524383 16.57328826 -3.63481769
H 31.77598344 18.16593985 -4.94075654
H 30.51656430 18.36227579 -4.05634140
H 33.36725920 5.20232482 5.20764414
H 33.32813038 4.57035674 3.69388325
H 29.57488484 13.00651760 0.32894661
H 29.06692830 12.15923601 1.55405239
H 36.28104814 4.77112658 1.93426682
H 36.53064186 6.21397574 1.22503217
H 33.48542431 9.88199309 0.33968242
H 34.16913201 8.99273049 1.45317922
H 35.83822668 7.79369467 -1.67853077
H 34.48669975 8.38539807 -1.33171361
H 34.84688903 7.88909550 3.42143014
H 33.63374685 7.37501713 2.51005217
H 36.45769633 6.12120317 3.90228726
H 37.09053067 7.48065022 4.35636306
H 35.04682458 9.63208812 -3.12991536
H 34.47805369 10.19861577 -4.33952676
H 30.34626245 13.25351373 2.47041549
H 30.51406682 12.77290072 3.93301249
H 36.65115634 3.79112659 4.54278612
H 35.13937906 4.23221574 4.30275539
H 32.25835278 14.61571999 -2.19391978
H 33.30300647 17.25056542 -6.29438293
H 33.01534745 14.51925672 -0.77734278
H 28.46140596 9.76524536 3.21110385
H 29.38028798 9.71537121 1.92449160
H 33.39733117 14.68296537 -4.25257801
H 34.36336823 13.64566027 -3.88091101
H 34.76580602 15.36765690 -5.63148954
H 34.78537376 15.62217121 -7.17407274
H 34.91268142 11.82609217 -2.72978269
H 34.12613726 12.95628245 -1.81642298
O 32.70427309 18.07652417 -6.43995543
O 30.52810243 11.91050342 -0.74768926
O 32.51231695 6.75407605 5.10104077
O 28.63591484 12.60249963 4.61201608
O 33.50164353 5.27281716 1.86106680
O 34.71596104 16.61536024 -1.74529110
O 36.23994034 14.60503655 -0.90594350
O 32.49493126 11.02756125 1.44388243
O 32.39512426 15.87442161 -3.25105733
O 31.34968324 17.84888561 -4.12660083
O 33.53360738 4.33251982 4.62783787
O 29.05126286 13.10487320 1.16900893
O 36.05996233 5.35928619 1.14468855
O 34.12469291 9.12530733 0.49927298
O 35.03311203 8.16386835 -2.10866554
O 33.97062349 8.16219586 3.06042239
O 36.39697055 7.08171149 3.86258939
O 35.24032720 10.38218844 -3.75530876
O 31.09338746 12.89736003 3.09191219
O 36.09547373 4.26418360 3.94851373
O 32.47603025 13.93515503 -1.41657766
O 28.84798469 10.32662461 2.50145869
O 33.97903915 14.03311166 -4.71402534
O 34.83332137 16.09352141 -6.34862978
O 35.00555851 12.69502001 -2.25002893
75
i = 0, time = 0.0, E = 0.0;
H 34.49818634 16.78640629 -6.12285034
H 31.16442395 13.30028706 -1.16654127
H 30.24812144 12.26103510 -1.90132688
H 32.81666592 7.79764839 4.88805110
H 33.07268995 8.34573977 6.35464458
H 29.84888122 12.55345759 3.35460563
H 29.46329305 12.98803030 1.84024333
H 30.92371202 6.73622869 1.12311046
H 31.89727718 5.75680017 1.51353913
H 34.38930282 17.61849364 -3.55356828
H 34.69209115 16.86719277 -2.37103396
H 35.59677286 15.90972092 -0.28855364
H 34.36353782 15.02052066 -0.61251143
H 32.84994117 9.51857927 2.22789429
H 32.87695959 10.87377493 1.34483105
H 32.56919783 16.27265950 -2.45665595
H 31.63263354 15.84723594 -3.69916108
H 32.05486309 16.80076674 -5.32239547
H 31.01514927 17.73321136 -4.78208388
H 32.42218418 5.77529512 5.63488689
H 31.34411629 4.64167865 5.37510196
H 29.29522062 13.68504679 -0.29225432
H 27.97778145 14.42540186 0.18211212
H 34.21328762 4.97601949 2.05953880
H 34.96090048 6.19660759 1.37990913
H 34.66298899 8.94619024 0.92988287
H 35.89978715 8.41897990 1.66861138
H 35.65537578 7.23283182 -2.04554745
H 36.46836621 7.93248261 -0.97912435
H 33.80045997 7.41686962 3.25304263
H 32.45782308 7.70981035 2.69210215
H 37.17888779 8.70647739 4.06111879
H 38.24414562 7.74687094 3.41895679
H 35.93206694 9.50879869 -2.73688415
H 36.30135171 9.51251752 -4.23873300
H 31.73873949 12.67833608 2.17915839
H 32.71017988 13.16272069 1.06293399
H 34.54627861 3.53090884 3.76213289
H 33.46684024 4.52978627 4.08385750
H 32.74754366 14.18238377 -1.58810841
H 33.78861622 18.21798639 -6.38721083
H 33.42797790 12.88469365 -0.92968292
H 29.52640579 10.39382283 2.91630896
H 28.07870533 9.93149502 3.22017514
H 34.00099822 14.77964326 -3.42900047
H 35.47194528 14.92339815 -2.89833951
H 35.11435411 15.00390121 -5.31003019
H 35.81485058 14.98116721 -6.64699108
H 35.66869333 12.55997089 -1.47492478
H 34.60893287 11.74490705 -2.21648498
O 34.11323636 17.62712166 -5.66353734
O 30.27297514 13.17982719 -1.61611108
O 32.84908460 7.49607050 5.88005478
O 30.06112869 12.36942390 2.42228286
O 31.31687150 6.39621210 1.94739575
O 33.99493942 17.46103967 -2.66246201
O 35.19131641 15.37207200 -0.98381000
O 33.06756475 9.87804059 1.29267307
O 32.13791552 15.43401021 -2.89726448
O 31.13629102 16.71634904 -5.01393734
O 32.28342316 4.80378760 5.40412934
O 28.81715398 14.01870080 0.52807962
O 34.29756331 5.54810006 1.25315632
O 35.33985764 8.17113646 0.90583910
O 36.34857531 7.86646699 -1.93813390
O 33.08960183 8.04819065 3.38631877
O 37.34041259 7.75345258 3.82164478
O 36.10138504 10.13737746 -3.52222495
O 32.72710433 12.63909034 1.96765248
O 33.87977537 4.03353688 3.38685089
O 32.72286058 13.60849775 -0.78272711
O 29.03648498 9.72874342 3.45254649
O 34.95307722 14.60267546 -3.67902283
O 35.00274719 15.38260282 -6.23057234
O 34.82009612 12.01224451 -1.34230705
75
i = 0, time = 0.0, E = 0.0;
H 33.03690103 17.17239104 -6.47203339
H 31.16237810 12.15674911 -0.96053594
H 29.71667147 11.85452536 -1.44540505
H 32.05286153 6.11376976 6.68166316
H 32.05861152 6.56285143 5.13991828
H 30.09047958 13.32744820 4.48167298
H 29.45738673 11.90530091 4.25581050
H 32.06576485 6.55596119 0.59887189
H 33.52997501 6.30022843 0.95554220
H 34.83261269 17.58241782 -2.42665894
H 35.42597018 16.09504947 -2.83319263
H 35.02275642 14.04431797 -2.26311783
H 36.59486014 14.45287892 -1.99328048
H 32.46625857 10.41449533 2.82260309
H 32.52196322 11.74804928 1.98607017
H 33.34916880 16.08448791 -3.07095088
H 31.85709540 15.95028278 -3.52704240
H 30.55513215 15.59799747 -5.21624327
H 31.32317251 16.92981335 -5.73194543
H 33.67265170 4.77110673 5.71491436
H 33.84978343 3.42795383 5.00943271
H 29.46482435 13.53334585 2.20547563
H 29.82482971 13.14694487 0.69514573
H 35.56674437 4.93270895 1.88244915
H 35.67691271 5.60151946 0.48509080
H 34.20285201 9.95750329 1.35186759
H 33.93270815 8.50757030 0.85903801
H 37.06913885 7.83603483 -0.47039143
H 35.73114340 8.60608054 -0.12550580
H 33.04593241 8.17118473 3.82017127
H 32.06868430 7.61763036 2.72872313
H 35.30874128 7.18989729 3.54523404
H 34.98199628 8.47796458 2.70613882
H 35.66343750 9.39231184 -3.57017118
H 36.09871807 9.16014811 -2.15744238
H 31.40558286 14.09806423 1.84334529
H 32.80052811 14.47166570 2.53512186
H 37.26809818 4.73104241 3.69208591
H 35.84080036 4.59437751 4.27796552
H 32.60677909 13.97922713 -1.78144363
H 32.76031463 17.85390510 -7.88751291
H 32.88774424 13.69252588 -0.29132635
H 30.43992470 9.22742092 3.99666403
H 29.55064912 10.07808179 2.92404296
H 33.32373202 14.35498993 -4.35879160
H 34.34613379 13.21322638 -4.35704723
H 34.67000940 16.83500110 -4.98131136
H 34.69062846 15.57224457 -5.95260300
H 34.95848685 11.36433603 -2.56915224
H 34.01495068 12.43145590 -1.91790776
O 32.29528499 17.48647978 -7.11068905
O 30.28323039 11.81238514 -0.62355372
O 32.20492843 5.81314392 5.76549498
O 29.34347145 12.87191396 4.14374718
O 32.81380262 6.99373416 0.96811257
O 34.87785760 16.93448926 -3.18817140
O 35.68530661 14.76289985 -2.07856213
O 32.45156805 10.73996523 1.89250293
O 32.58721999 15.45964970 -2.97310189
O 30.91537383 16.49102406 -4.96014934
O 34.36793238 4.16895940 5.42168319
O 29.83259871 13.90911875 1.38704778
O 35.05831654 5.19758770 1.09290939
O 34.67097743 9.11536580 1.08972282
O 36.11670054 8.00259107 -0.78946425
O 32.08566141 8.14122973 3.63770588
O 34.91789096 8.09520534 3.61506295
O 36.04508534 9.92342468 -2.87131478
O 32.41722218 13.97048403 1.78797559
O 36.36222179 5.13162490 3.61750546
O 32.73148020 13.21833648 -1.15482611
O 29.66957320 9.84393517 3.90969163
O 33.85602335 13.80809940 -4.97609724
O 34.53822096 16.57334252 -5.95855597
O 34.68881740 12.30165378 -2.56488696
75
i = 0, time = 0.0, E = 0.0;
H 33.04693520 17.36845250 -7.72207480
H 30.44803102 12.71382584 -1.82054796
H 29.18257374 12.04388848 -2.26883265
H 33.43834080 7.28424707 5.50126867
H 33.16381640 7.30429717 7.12260564
H 27.50217300 11.71115267 5.55630435
H 27.11985357 11.52792009 4.04055425
H 32.18360728 5.31762443 3.65664222
H 33.08184888 4.96317983 2.40675419
H 35.89516394 17.20307791 -2.37202293
H 36.37558183 15.71860586 -2.89827663
H 37.45882459 13.70603709 -2.95218397
H 38.47071243 15.01923751 -2.93289067
H 33.58294798 12.43779738 1.78101814
H 34.34640407 11.93367618 0.54659997
H 33.82847167 16.04579756 -2.74357510
H 32.44655371 16.13912323 -3.49311358
H 31.48959525 16.92055426 -5.60392634
H 31.58836294 18.12719927 -4.61915276
H 32.43695253 5.29202513 5.95248671
H 31.21237800 4.40129027 6.31629387
H 29.10400331 12.83356253 0.15438380
H 28.67658798 13.46208164 1.51588873
H 33.72245853 2.86714078 2.70308028
H 34.31792809 3.20036652 1.29567590
H 35.07255553 10.47692985 1.93618778
H 35.10747561 9.04265255 2.76705914
H 34.63610516 7.87958863 -0.62359117
H 35.14146680 9.10711362 0.25437314
H 35.19746766 7.21462137 3.80679137
H 33.60655126 6.81917027 3.45731290
H 36.88983026 7.70753639 2.35495585
H 37.84302428 6.62529019 2.96640215
H 33.65824613 11.60155024 -1.51593060
H 34.54127731 10.34085986 -1.20773932
H 31.12941765 13.83376821 1.23024690
H 32.49387668 14.65402796 0.99232667
H 33.97745825 1.71971533 4.63044219
H 33.16051915 3.11848734 4.79845054
H 32.43836320 14.06752818 -2.32927633
H 31.61723267 16.61298229 -7.97042946
H 32.33963845 13.34281917 -0.93554475
H 28.81031443 11.33317086 1.96702516
H 28.85089049 9.93101122 2.63490352
H 34.14892743 15.48811016 -5.34214749
H 35.30036459 16.39117947 -4.73718988
H 34.78811293 16.71091439 -6.91544712
H 35.20848614 17.14807378 -8.43685582
H 36.25937273 12.12267528 -1.95951089
H 37.47808998 11.43555124 -2.64141498
O 32.12550712 17.13414734 -7.28800787
O 29.49900754 12.51423913 -1.52842251
O 33.24611024 6.75572228 6.30308665
O 26.89559333 12.02156031 4.84611254
O 32.72952561 5.75833850 2.87735988
O 35.62065832 16.43588081 -2.89236763
O 37.57408703 14.75761357 -3.23935111
O 34.35429640 11.91291203 1.52180820
O 32.94764673 15.55130517 -2.87776103
O 31.36933292 17.12157720 -4.62779247
O 31.94682217 4.50411285 5.64195984
O 29.34349678 12.81659823 1.12686953
O 33.51940790 3.22661422 1.78702783
O 35.58790171 9.56848108 2.07165219
O 35.02624429 8.77962924 -0.66707070
O 34.26704575 7.57780824 3.79885972
O 36.97910191 7.05297153 3.08106626
O 34.60948162 11.36587781 -1.21851974
O 32.16664654 13.75430470 1.10627343
O 33.86171291 2.61439666 4.32197986
O 32.05565204 13.16417338 -1.87315245
O 28.28364568 10.73818737 2.54412962
O 35.04203720 15.85817044 -5.60433624
O 34.61590331 17.31713199 -7.68818498
O 37.21468882 12.30164633 -2.28404906
75
i = 0, time = 0.0, E = 0.0;
H 33.43371496 15.68011940 -7.57885830
H 31.48671595 14.74527424 -0.40200200
H 30.02943742 14.40047950 -0.48576414
H 32.62883813 8.80713411 6.69224722
H 32.80131608 7.86843524 5.53492387
H 28.42957754 12.18918783 4.81225625
H 28.26739010 12.83614988 6.13485664
H 32.05810846 5.87404403 0.88815048
H 32.28886453 4.83939751 2.02058983
H 34.74744033 16.43385523 -5.16864647
H 34.63649617 16.82951580 -3.74480133
H 35.55162967 16.26590474 -1.42842478
H 35.58446022 14.92148532 -2.33104833
H 33.60470549 13.11008341 -0.49800545
H 33.73399336 12.54646904 0.93863978
H 32.84728738 15.62094195 -4.26513073
H 31.45693203 14.93898900 -4.73368320
H 31.39389378 15.36398096 -7.06095850
H 30.03453782 15.10393206 -6.61332852
H 32.35801264 5.93902800 6.75854096
H 31.82047993 4.94413656 5.84301648
H 30.62164090 13.81022273 1.51780806
H 30.00452470 13.70197807 3.07750705
H 33.92267314 3.26588166 3.17704829
H 34.47888454 3.53812345 1.73113996
H 36.35130468 8.79284430 2.26716727
H 34.99681372 7.96198515 2.29835798
H 35.29560240 9.35358625 -0.26962093
H 34.60314769 10.62689250 -0.53540670
H 34.28800140 6.50588936 3.81714943
H 33.11034428 6.85333451 2.93484272
H 36.57993330 6.07674845 2.73084289
H 37.51382866 5.81269543 4.05438227
H 35.29212780 10.67433589 -2.56873178
H 35.50462573 10.38678824 -4.13072531
H 32.27741768 12.93423277 2.88327700
H 33.60236699 13.69540059 2.83217175
H 35.22238615 4.30463471 4.97996956
H 33.80769856 4.09263530 5.62706473
H 32.23069906 14.69905306 -2.29144173
H 32.76613993 17.10224799 -7.69770246
H 33.41582681 15.13726564 -1.58211919
H 29.53281149 11.69372717 2.44660791
H 28.53146287 10.53390512 2.42316349
H 33.48070642 13.94190569 -4.38191789
H 34.28001380 12.53973486 -4.40294841
H 34.50996701 14.31371403 -5.98765514
H 35.56980814 14.69506613 -7.12715849
H 36.39442358 12.38883368 -2.74976470
H 37.37131325 13.02216571 -1.65769112
O 32.60011198 16.18379651 -7.81347128
O 30.68738882 14.68006707 0.18548849
O 32.60674887 7.86134113 6.44225090
O 28.65649275 13.03887730 5.23300338
O 31.87525562 5.75630788 1.81393871
O 34.11989098 16.89701317 -4.59786455
O 35.04695283 15.77558385 -2.12760006
O 34.11445331 12.44031472 0.02234457
O 32.21736685 14.84676972 -4.07218364
O 30.92746950 14.79418539 -6.42873962
O 32.53102120 4.98875696 6.49793279
O 30.63660782 13.29165083 2.41637774
O 33.61495355 3.47320042 2.24916983
O 35.69868265 8.40384362 1.68640380
O 34.99737851 9.87551691 -1.02257142
O 33.71919726 7.26433476 3.59222629
O 36.62738312 5.64634306 3.61323931
O 35.46911194 11.09475056 -3.43546789
O 33.22069429 12.84962451 2.54518539
O 34.38552909 3.78034070 4.85033581
O 32.64276511 14.64318139 -1.43603724
O 28.82781832 11.24481720 3.02171629
O 34.10335320 13.35300408 -5.00822413
O 34.82472953 15.06039537 -6.70904091
O 36.67127834 13.26822398 -2.30594559
75
i = 0, time = 0.0, E = 0.0;
H 32.53342716 16.85469461 -6.93962856
H 30.25741323 13.68751673 -0.40462792
H 29.76649751 12.49111609 0.46380285
H 31.69402643 6.03717539 2.96254226
H 31.69715905 7.19990812 4.13803741
H 30.21337181 13.34694519 4.02015116
H 31.63562900 13.32756676 3.22535644
H 32.89826252 5.97780324 0.72319772
H 32.42343061 4.67180719 1.20310002
H 34.48141567 16.52191453 -4.87729282
H 34.90975901 16.79354900 -3.43982546
H 35.79515490 15.05067145 -2.04954084
H 35.63988530 16.55192242 -1.37405358
H 31.86732625 10.08413110 2.45951425
H 32.71150186 11.23113556 1.78710253
H 33.15214459 16.19684008 -3.39785599
H 31.60416827 16.23114086 -3.35936754
H 31.18899807 17.68534198 -4.91314945
H 30.95986441 18.68217519 -3.80104488
H 32.24158854 3.80997294 5.69884673
H 32.69935990 5.19085540 5.08696864
H 29.80328130 15.09169917 2.16059330
H 29.78692565 16.42994763 1.37843534
H 33.96699054 3.21653142 1.87749904
H 33.40430566 2.02409335 0.99334126
H 33.66257338 9.66054084 0.71629275
H 34.67944246 8.46287640 1.17437711
H 35.48800104 8.24270063 -2.31609856
H 35.32466755 8.96337888 -0.88778895
H 35.51318407 6.63985540 2.94485942
H 34.00712349 6.52600708 2.99403611
H 36.78386484 4.53864251 3.65293451
H 36.40852975 5.20130050 4.91421659
H 37.57357376 11.33066564 -0.70100586
H 36.67618560 10.47319715 -1.66990652
H 31.57939126 14.08336164 1.02749092
H 32.23415497 15.04116121 1.95744963
H 35.25304026 2.35835847 4.38844091
H 34.32495374 3.49699256 4.43194489
H 31.49091635 14.46419239 -2.08369345
H 33.15192231 17.63122898 -5.82219350
H 31.24633439 12.88654798 -2.21423647
H 30.79852322 11.03100794 4.06263777
H 29.78088293 9.91415750 4.50898516
H 32.98721952 14.12330313 -4.01034847
H 34.30540146 13.45160156 -3.65986409
H 34.41237439 14.49982168 -5.61645194
H 35.33345272 15.15158539 -6.67539186
H 35.95894034 12.60573101 -1.98812224
H 34.47130897 12.83835318 -1.64201709
O 32.40158999 17.66772192 -6.44373290
O 29.79418441 13.46943233 0.44633398
O 31.98337975 6.29223981 3.89064146
O 31.06369970 12.89055694 3.98604729
O 32.07856370 5.61573409 1.17092017
O 34.22064801 17.11610981 -4.10235834
O 35.96723190 16.00469122 -2.18791143
O 32.32482979 10.33545540 1.59828881
O 32.34812139 15.64050980 -3.03417325
O 30.62834109 17.79410806 -4.06434970
O 33.05517511 4.32297884 5.41562290
O 30.24102510 15.97299691 2.08356129
O 33.31336399 3.00286166 1.13148733
O 34.49407806 9.13876087 0.44613877
O 36.01850842 8.64573879 -1.58371905
O 34.73151689 7.04367549 2.53009115
O 36.65875953 5.45191270 4.00370741
O 37.04881834 11.42584397 -1.56365176
O 32.41144602 14.14568298 1.59811787
O 34.91090649 3.03430738 3.74963818
O 31.27846993 13.61770700 -1.52972651
O 30.70929156 10.04616802 4.19374840
O 33.67061713 13.46089429 -4.41576982
O 34.56303190 15.39920237 -6.07909218
O 35.15731893 13.21077992 -2.17737165
75
i = 0, time = 0.0, E = 0.0;
H 33.60457102 16.66004210 -6.34258049
H 29.46729816 12.59039300 -0.47039707
H 30.63563162 11.77979162 0.02356996
H 32.35684257 6.60423630 4.41221024
H 32.45857914 7.55233221 5.66826393
H 29.67703684 13.80660740 4.22881553
H 29.19108639 14.27194743 2.92801688
H 31.00462504 6.55654257 2.31603353
H 31.86271929 5.17987398 2.55447495
H 33.88836555 17.61728959 -2.77814379
H 34.63787180 16.26337450 -2.26881666
H 36.47070297 14.85400767 -1.37655993
H 36.23828436 15.13850123 -2.77584504
H 33.73099980 10.03013312 2.81968897
H 33.11940711 11.17875545 2.00855053
H 32.18348307 15.70045711 -3.57074409
H 31.14631149 14.90997504 -4.49449074
H 31.10928829 16.12762691 -6.31409164
H 30.20419648 14.95674324 -6.83873020
H 35.45097782 5.42642568 5.95450638
H 34.00396874 5.29365614 5.75228500
H 28.81485581 15.48088266 0.75000267
H 30.23857128 15.05118691 0.46850960
H 31.75621021 2.95809110 2.17953766
H 33.09859754 3.36007756 2.69183510
H 35.36941365 9.65265659 1.24042743
H 35.13152775 8.31119508 1.06403398
H 34.86441477 8.86645382 -2.15141967
H 35.82739068 8.98270132 -0.99004687
H 34.59881441 7.66368175 3.21123032
H 33.44648675 6.84257616 2.56918216
H 37.04280229 8.73736570 2.84318007
H 37.81778534 8.50974759 4.09538598
H 36.25238787 10.15783817 -2.83343598
H 37.14261907 10.66360997 -3.99518028
H 31.56044411 13.12142959 1.66013424
H 30.81037464 11.74221493 2.20132003
H 34.87898387 2.07395937 3.70363375
H 34.61482928 3.29966988 4.62651600
H 31.12313698 14.54333068 -1.81382025
H 33.18460607 15.82552688 -7.47919736
H 32.21769867 15.52211961 -1.19857119
H 28.58423439 10.73902789 2.14408937
H 28.68562091 11.88680162 3.15852544
H 34.09028045 14.09152113 -3.96269093
H 35.23989323 13.07880127 -3.85412863
H 35.63908479 16.37568301 -5.62439857
H 34.57755286 16.63353118 -4.48711849
H 36.97684589 12.20664485 -1.98658029