6
i = 0, time = 0.0, E = 0.0;
H 19.49437207 18.99938657 19.55029211
H 17.15469460 19.31633619 20.66318825
H 16.18592140 20.35485273 21.18279887
H 20.11590392 19.80796796 20.56938771
O 19.32563917 19.25875380 20.55473566
O 16.19857363 19.43817647 20.77285645
6
i = 0, time = 0.0, E = 0.0;
H 19.70347857 19.14747529 21.08178710
H 16.21647026 20.02968308 21.96171819
H 17.16096862 19.31220597 20.97162583
H 19.67497408 18.25374150 19.94618443
O 19.30111522 19.11716543 20.19415366
O 16.23538336 19.68910424 21.00770475
6
i = 0, time = 0.0, E = 0.0;
H 17.06444420 19.85700381 20.40147587
H 19.80492968 18.07801318 20.84311469
H 19.67616587 19.53502966 20.26441612
H 16.38444869 19.44147271 21.65194155
O 16.30781532 20.09474833 20.95544482
O 19.21771446 18.70091061 20.29683987
6
i = 0, time = 0.0, E = 0.0;
H 17.32619781 19.31628975 20.37921581
H 19.42719855 19.37460387 21.78396438
H 19.08174917 20.78728825 21.27864919
H 16.03895283 18.81904264 21.05698570
O 16.51058715 18.86410398 20.17862680
O 19.08146787 19.84425009 20.98936701
6
i = 0, time = 0.0, E = 0.0;
H 18.10119985 20.22395433 22.09912223
H 18.13876247 17.78943436 18.17223970
H 19.28127400 18.28071976 19.04993780
H 16.72476806 20.86453224 21.76350956
O 17.25089460 20.40263442 22.45719554
O 18.31772886 18.37745491 18.92589407
6
i = 0, time = 0.0, E = 0.0;
H 17.90603367 20.11162017 22.83927812
H 18.24855387 19.63086775 18.42735107
H 17.87209056 19.55522786 20.01705701
H 17.87257258 18.61782688 22.15256755
O 17.75516750 19.61987332 22.06048172
O 17.83530284 19.11252822 19.17445762
6
i = 0, time = 0.0, E = 0.0;
H 18.73759782 20.30854878 22.00654466
H 18.53303391 17.94563647 19.36061931
H 17.02736203 17.76758011 19.11857555
H 17.50722949 19.89250584 21.20830143
O 17.93639884 20.65098356 21.62648541
O 17.65999558 18.20750596 19.71822022
6
i = 0, time = 0.0, E = 0.0;
H 17.51523997 20.93903809 21.69607356
H 18.30514115 19.00181987 20.50789496
H 18.10373413 17.73525692 19.68845244
H 16.37361586 19.93624322 21.63295472
O 16.87352873 20.55330352 21.05143297
O 18.81784364 18.19819984 20.17789136
6
i = 0, time = 0.0, E = 0.0;
H 17.33685379 20.42211397 22.37569078
H 17.36798703 17.27132685 19.69999421
H 17.62948561 18.88158503 19.59975135
H 18.45590386 20.31529250 21.27369978
O 17.59874865 20.80841666 21.48555905
O 18.06159433 17.98857804 19.78007064
6
i = 0, time = 0.0, E = 0.0;
H 15.54168952 21.03102499 20.71062600
H 19.95639931 16.38135833 21.28454764
H 18.54847083 16.98589248 20.88944319
H 16.29944689 22.43674101 20.61933431
O 16.19058313 21.56206183 20.15959058
O 19.49774768 17.23841707 21.07108358
6
i = 0, time = 0.0, E = 0.0;
H 17.54652255 22.07424677 18.99386124
H 17.78830170 17.85408424 21.00971075
H 17.91300405 16.45565306 21.19349487
H 16.52588054 21.71350056 19.95581419
O 17.47216138 21.48112201 19.77158438
O 18.25222646 17.23981645 21.60721647
6
i = 0, time = 0.0, E = 0.0;
H 16.98371274 22.06914827 19.60314951
H 17.79631776 17.24024732 22.19520120
H 17.33375029 17.42811705 20.72762794
H 17.25901706 20.62018008 20.07422717
O 17.66567986 21.50069900 20.01889769
O 18.08396694 17.26684928 21.26871597
6
i = 0, time = 0.0, E = 0.0;
H 16.85625094 18.51566031 21.57260135
H 19.43580538 19.85455707 20.07756321
H 18.05991621 19.27035531 19.90040931
H 16.00552689 19.77268017 21.31081075
O 16.78726370 19.48492727 21.84145455
O 18.90034301 19.27912049 19.42970383
6
i = 0, time = 0.0, E = 0.0;
H 17.93460304 18.87353328 21.34128818
H 18.28463813 18.61012099 18.98343114
H 16.92266805 19.36685515 18.77125056
H 18.26766191 20.26911506 21.48852322
O 17.94926565 19.53569551 22.01561090
O 17.67205642 19.24685200 19.39900062
6
i = 0, time = 0.0, E = 0.0;
H 17.44212086 19.47157192 21.17662016
H 18.28200466 19.00494701 18.71461532
H 18.26738822 20.47754819 19.01446426
H 17.68478480 18.64120141 22.51238619
O 16.98071905 19.08833611 22.04248408
O 18.62379814 19.66424397 19.31960780
6
i = 0, time = 0.0, E = 0.0;
H 17.22115808 21.31338567 20.92383974
H 19.34654053 18.54580182 21.23800991
H 18.00377677 19.08011357 20.75192146
H 17.41265618 20.62807474 19.66673641
O 17.06718700 20.44170561 20.52093528
O 18.51793550 18.18662394 20.76791947
6
i = 0, time = 0.0, E = 0.0;
H 16.27405194 18.24708230 20.94005323
H 19.13212281 20.79141155 21.47702603
H 19.79062713 19.68833208 20.57820694
H 17.43729541 19.09521672 20.50087499
O 16.56550618 18.77859781 20.21680774
O 18.97866591 19.95969458 21.01435721
6
i = 0, time = 0.0, E = 0.0;
H 18.06759398 21.05149484 21.67682828
H 17.60229932 17.76566538 19.45168406
H 17.27155859 18.87368893 18.58631014
H 18.21229220 19.54135733 21.31327855
O 18.66142165 20.25617553 21.90897357
O 16.97601852 18.51927887 19.47768889
6
i = 0, time = 0.0, E = 0.0;
H 15.82858631 19.32948631 21.68515565
H 19.37861500 18.01976444 20.19682680
H 18.41684631 19.18179354 20.33265050
H 16.21819718 20.55451330 20.86526065
O 16.55754981 19.92401545 21.48200408
O 19.16251998 18.86067841 19.77538738
6
i = 0, time = 0.0, E = 0.0;
H 15.91824723 18.28600892 21.32024950
H 19.17996515 21.32699332 20.05562624
H 18.51630273 20.02265156 20.52007782
H 17.16728146 17.35547585 21.42626191
O 16.86889394 18.29551061 21.54414061
O 18.79198039 20.49513258 19.69798360
6
i = 0, time = 0.0, E = 0.0;
H 17.80949917 17.59647577 20.28090977
H 18.31010397 21.95628307 20.84086780
H 19.03250117 20.57223036 21.19676899
H 16.47291903 18.33995318 20.38359561
O 17.00676959 17.63860187 20.84462766
O 18.60097813 21.05918530 20.43656361
6
i = 0, time = 0.0, E = 0.0;
H 16.53594608 21.15565441 20.80623843
H 18.21906118 17.70542690 19.13248068
H 19.41472415 18.00872460 20.12631050
H 17.43471763 19.90237395 20.89076681
O 17.17760311 20.72553238 21.32537386
O 18.43144086 18.07890551 20.06584409
6
i = 0, time = 0.0, E = 0.0;
H 17.95373434 19.81595342 20.88477284
H 18.07192957 17.34174015 19.95056406
H 16.57519232 17.81274625 19.95495735
H 17.48407662 21.20772693 20.71362108
O 18.18950071 20.72961155 21.23474303
O 17.51527879 18.11225149 20.12194124
6
i = 0, time = 0.0, E = 0.0;
H 15.78563537 18.77717865 21.17609586
H 18.36479385 19.29284349 20.52615428
H 18.79894523 19.21300199 19.13021632
H 16.53720466 19.80110010 21.93769787
O 16.69539671 19.09328530 21.34935710
O 19.04708142 19.69149887 19.92754851
6
i = 0, time = 0.0, E = 0.0;
H 16.13436932 19.67633957 20.23281862
H 19.57893179 18.63824231 20.86346286
H 18.27567281 19.41253342 20.69830418
H 15.94637907 19.77688978 21.76638994
O 16.63807463 19.66438840 21.06722891
O 19.07612899 19.09394160 20.15985247
6
i = 0, time = 0.0, E = 0.0;
H 15.90349860 18.95814284 20.79298588
H 19.48365093 19.78991786 18.79863921
H 19.58721968 20.31118232 20.25217257
H 17.11517100 18.72499879 21.69611991
O 16.22823986 19.22483189 21.68711908
O 19.35024148 19.51584210 19.66729693
6
i = 0, time = 0.0, E = 0.0;
H 16.21716833 19.04447174 22.45098066
H 18.07168932 19.61424578 19.85111352
H 19.36111768 20.29585967 19.70465704
H 17.50791074 19.09972342 21.83680129
O 16.63323295 19.36592200 21.55235191
O 19.00394626 19.35773724 19.65692601
6
i = 0, time = 0.0, E = 0.0;
H 17.64562480 19.28086275 18.71545157
H 19.04065248 18.37710473 21.43180118
H 19.08548593 19.64669700 22.14662182
H 17.11934792 19.32013565 20.17192159
O 17.08823038 19.84489519 19.38585214
O 18.43974883 18.96882820 21.91022988
6
i = 0, time = 0.0, E = 0.0;
H 16.89194331 21.80712999 20.44606642
H 18.33222861 18.75221590 21.08988110
H 19.36603573 17.76938573 21.62824119
H 16.26883426 20.46280640 20.08763366
O 17.15268784 20.90048261 20.05816271
O 18.50331973 17.77672777 21.18839655
6
i = 0, time = 0.0, E = 0.0;
H 16.28583742 22.41029649 19.52418705
H 18.13272699 15.80858368 20.69470688
H 18.91819454 16.46665302 21.75098591
H 16.11341383 23.32369828 20.86127635
O 16.67104197 22.67538636 20.43613475
O 19.07372990 16.05111239 20.83692815
6
i = 0, time = 0.0, E = 0.0;
H 16.74445235 20.35854486 20.69552466
H 17.77546443 17.78996880 21.91363907
H 18.93297629 17.50044292 20.87956752
H 18.06838009 20.25004543 19.97619003
O 17.13615865 20.62418861 19.85726750
O 18.47812576 18.23526291 21.37586569
6
i = 0, time = 0.0, E = 0.0;
H 17.75026876 19.25723185 21.21550335
H 17.68689845 19.90676057 19.01280291
H 18.58500424 18.68185392 18.71528542
H 18.17585676 19.46763469 22.82034979
O 17.68086063 19.83423093 22.01830216
O 17.89078552 18.93610285 19.32199945
6
i = 0, time = 0.0, E = 0.0;
H 17.41924215 19.79878812 21.26656658
H 19.79998683 18.76809033 20.04585384
H 19.01507797 17.92029441 21.02535452
H 16.31160220 20.02947430 20.24617596
O 16.63810633 20.42016464 21.10364852
O 18.91162196 18.40037281 20.18498927
6
i = 0, time = 0.0, E = 0.0;
H 16.96317648 20.84557945 19.02594836
H 17.64728826 18.67040757 20.90491541
H 17.62109862 17.53407048 22.01560191
H 18.33681905 21.03985171 19.77204236
O 17.54315467 20.46000660 19.69572741
O 18.13116560 18.26140914 21.64743669
6
i = 0, time = 0.0, E = 0.0;
H 16.52338619 20.15253800 19.70647619
H 19.60368834 19.69820120 20.19497719
H 18.38277003 18.99293586 20.75470202
H 15.90978539 18.78595072 19.94706219
O 16.43240328 19.45909301 20.37678169
O 19.25128896 19.29132239 21.03665012
6
i = 0, time = 0.0, E = 0.0;
H 17.55389706 19.60901733 21.22692231
H 18.09029394 17.87197255 19.68680756
H 18.79790762 19.13406823 19.19715458
H 16.92614255 20.76347321 22.01682828
O 17.67361475 20.04027225 22.13886744
O 17.95031127 18.72596311 19.17851517
6
i = 0, time = 0.0, E = 0.0;
H 15.99379414 20.69129234 21.29295649
H 18.08009947 18.78799352 20.05360454
H 19.53155521 18.44914309 20.44985489
H 17.26364055 20.52128943 22.07529567
O 16.64048215 20.00288533 21.50852046
O 19.01489240 18.69586103 19.69898334
6
i = 0, time = 0.0, E = 0.0;
H 16.49415600 19.88748740 20.57044439
H 19.32199308 18.20504161 19.97600880
H 18.38570338 18.85081662 21.14558673
H 16.66970616 21.05377270 21.41808398
O 17.01225463 20.71166475 20.57105882
O 18.64296434 18.01559719 20.68442800
6
i = 0, time = 0.0, E = 0.0;
H 16.76086212 20.97074330 21.00992836
H 18.57906010 17.75275578 19.88620577
H 18.33646902 17.54428553 21.34921296
H 17.56508899 19.80453191 20.50002121
O 17.63680715 20.75335315 20.68113517
O 17.99510530 18.09517890 20.59733270
6
i = 0, time = 0.0, E = 0.0;
H 18.20673520 18.72752493 20.48737109
H 17.39631805 20.65549777 20.71619939
H 15.78122025 20.53407351 20.34282048
H 19.45085310 19.06712749 19.80694584
O 19.14614663 18.35802181 20.39903243
O 16.51136771 20.30704861 20.96713891
6
i = 0, time = 0.0, E = 0.0;
H 17.37308444 19.50149670 20.83893777
H 18.98752140 19.36017650 19.48972716
H 19.53751731 18.81082728 20.70648131
H 16.30117454 19.79207967 22.01028162
O 16.70783803 20.18151016 21.20609121
O 18.86372815 18.57930378 20.05347172
6
i = 0, time = 0.0, E = 0.0;
H 18.86150774 19.03986287 21.73844489
H 17.42507562 19.25561688 19.98776535
H 15.88019625 19.02870484 20.31274675
H 19.92076720 20.11134682 21.27175700
O 18.98182514 19.99914055 21.50490912
O 16.59678177 18.76350358 19.73793974
6
i = 0, time = 0.0, E = 0.0;
H 17.42905678 18.75283689 22.34093958
H 17.35474104 19.84615430 18.67295326
H 17.97261576 19.69922145 20.14219320
H 18.94240092 18.79441685 22.20124919
O 18.16320923 18.50554635 21.69134303
O 17.43988935 20.27870194 19.54856851
6
i = 0, time = 0.0, E = 0.0;
H 17.65290312 19.64728607 21.11387497
H 19.05814275 18.98499111 19.44887094
H 17.91436972 18.84664539 18.45357643
H 17.65509079 19.21733258 22.48566818
O 17.43044693 20.00356734 21.96704843
O 18.13600280 18.80565410 19.38975711
6
i = 0, time = 0.0, E = 0.0;
H 17.05780040 21.19284381 21.19307506
H 19.45165680 19.17711140 19.95984276
H 19.21934446 17.62258310 19.58586497
H 17.39458356 19.81318899 20.96681893
O 16.66107717 20.31088522 21.39229256
O 18.85226786 18.42843509 19.95168472
6
i = 0, time = 0.0, E = 0.0;
H 17.70398119 20.40629698 23.65508798
H 17.30554946 16.80008915 16.84057565
H 17.33881787 18.32686998 16.67468887
H 17.13959305 21.67328500 24.16585097
O 17.99249188 21.17829887 24.15961744
O 17.74990040 17.59877254 17.20763337
6
i = 0, time = 0.0, E = 0.0;
H 16.80569131 19.42185000 21.16620114
H 18.72570335 19.07739500 19.88765809
H 19.88389741 18.26490012 20.61122433
H 16.15988460 20.83875510 21.00199019
O 16.61556207 20.13859707 20.56292496
O 18.99532619 18.61350215 20.72047575
6
i = 0, time = 0.0, E = 0.0;
H 18.38106390 22.50589416 20.93729671
H 16.89676140 16.44021534 20.36570523
H 17.16447324 17.11063143 19.01188936
H 17.67322555 21.17569319 20.85701218
O 18.25312072 21.67182136 21.43560760
O 17.44973138 17.10361869 19.94199476
6
i = 0, time = 0.0, E = 0.0;
H 15.89347376 19.99464398 19.82243026
H 19.57840358 19.09723486 21.52672874
H 18.54976249 19.62496059 20.56745338
H 15.67695558 19.46540282 21.27706167
O 16.39685622 19.67370042 20.64064164
O 19.33226404 19.04189797 20.60958120
6
i = 0, time = 0.0, E = 0.0;
H 18.29462872 20.76363860 21.10006497
H 16.08164177 17.28406679 19.86102151
H 17.25188779 16.32645212 20.14973515
H 18.53215544 22.11492892 21.63152137
O 18.77608010 21.58699684 20.85942471
O 16.92395011 17.23527705 20.41923377
6
i = 0, time = 0.0, E = 0.0;
H 17.56132813 21.52786532 20.56854441
H 17.75715734 18.75585665 20.56623528
H 17.86283025 17.21760598 20.66485792
H 17.90155418 21.32296322 21.97629251
O 17.83357673 20.76610817 21.20357598
O 17.80832879 17.90903863 20.00996244
6
i = 0, time = 0.0, E = 0.0;
H 16.93700696 20.57197820 21.90190405
H 18.73880374 18.52237120 20.07558034
H 19.31301894 19.75900391 19.48521168
H 15.74752785 19.83189504 22.67231946
O 16.21783970 19.89662434 21.75799187
O 19.44589748 18.78728270 19.43292276
6
i = 0, time = 0.0, E = 0.0;
H 19.48147458 16.64474735 21.94433175
H 15.92262186 21.49067342 20.80987106
H 17.24954704 21.79492325 20.14344092
H 20.02952835 16.69580222 20.51849884
O 19.20447086 16.62796761 20.99171663
O 16.33660933 22.18567096 20.24448982
6
i = 0, time = 0.0, E = 0.0;
H 16.21770982 20.35403172 20.80291307
H 18.68258546 17.52811940 20.40686561
H 18.01221887 18.98323222 20.57887463
H 17.39465912 21.20830124 21.36567914
O 17.06160420 20.28488667 21.27815061
O 18.62917327 18.43755128 19.97455090
6
i = 0, time = 0.0, E = 0.0;
H 15.98235140 19.40927706 19.94445461
H 19.09424222 18.29529336 20.04415308
H 18.29507822 19.42581305 20.55140936
H 16.07363136 20.47788986 20.97655293
O 16.55801358 19.70353378 20.68723501
O 19.18706510 19.04822693 20.66865199
6
i = 0, time = 0.0, E = 0.0;
H 18.49104592 19.29583683 22.21179533
H 17.58915669 19.35596658 20.08906881
H 17.32485251 17.77676737 19.86440480
H 19.00773838 20.70073955 21.67816228
O 18.24459528 20.12673427 21.76830556
O 17.31351982 18.65520299 19.44098002
6
i = 0, time = 0.0, E = 0.0;
H 15.70348916 19.23897870 21.76849804
H 19.49218981 20.01371078 19.96193120
H 19.58707933 18.64776313 19.30888740
H 17.24493161 19.26118334 21.40032977
O 16.38047823 19.69117343 21.19377443
O 19.20189991 19.08872720 20.10395512
6
i = 0, time = 0.0, E = 0.0;
H 15.78698498 19.04787676 21.37253355
H 18.15958950 19.58185681 20.17137509
H 19.03990125 18.37504350 19.66721750
H 16.56718859 20.41951723 21.67798777
O 16.70466694 19.42293567 21.56735893
O 19.03358455 19.34041642 19.70205239
6
i = 0, time = 0.0, E = 0.0;
H 16.15070584 18.55040879 21.50963584
H 19.32617270 20.36424500 20.31640080
H 19.65575283 18.92204177 20.83008218
H 17.26860467 19.20859565 20.55944455
O 16.44322276 19.38551935 21.07694471
O 19.11562051 19.40171144 20.17189902
6
i = 0, time = 0.0, E = 0.0;
H 17.12431537 20.84967703 22.06751524
H 17.83825138 18.28465763 18.22522035
H 19.23099431 18.72191203 17.82519813
H 17.62014431 19.46955050 22.42345448
O 16.95159815 20.14917235 22.76142301
O 18.64426187 18.62038546 18.65590427
6
i = 0, time = 0.0, E = 0.0;
H 16.04942367 19.83205246 21.08632886
H 19.82315946 18.26781900 20.46478363
H 18.50525833 19.17361982 20.63022923
H 16.28645599 21.01442347 20.16435058
O 16.44856864 20.04876623 20.20006517
O 19.21970859 18.66017439 21.10358385
6
i = 0, time = 0.0, E = 0.0;
H 15.94883787 20.97006540 20.71127482
H 19.38491435 17.31409711 20.37953802
H 18.63445820 18.49051924 21.01022472
H 17.42125011 20.81365470 20.48261053
O 16.76028999 20.61460450 21.15956956
O 18.86229912 18.13841230 20.12908730
6
i = 0, time = 0.0, E = 0.0;
H 17.86844374 19.73011776 21.15891634
H 16.73899637 17.81264825 19.16882759
H 17.79787272 18.95568778 19.37661317
H 18.21380802 20.39110021 22.42515391
O 18.56788352 20.32711924 21.50331956
O 17.10324001 18.46992361 19.81394973
6
i = 0, time = 0.0, E = 0.0;
H 16.88950751 20.60333920 21.92841689
H 18.09246956 19.47413044 19.94405176
H 19.28114618 18.43108079 19.98094080
H 16.15819278 19.42969111 21.23932921
O 16.86705223 19.66167810 21.88380789
O 18.81653378 19.06929330 19.37277429
6
i = 0, time = 0.0, E = 0.0;
H 17.90056633 19.62732584 22.10964545
H 17.84831151 18.13601717 18.81530659
H 17.87043141 19.35263386 19.82222382
H 17.24908249 20.96466786 22.28245961
O 17.35868438 20.26833215 21.61361875
O 18.29673411 18.45366729 19.64693917
6
i = 0, time = 0.0, E = 0.0;
H 16.90041359 20.99096839 20.10085686
H 18.63552091 16.94948375 20.58184754
H 17.98701253 18.32813352 21.12976027
H 18.24092619 21.31053465 20.53410654
O 17.39407703 20.97862364 20.94112260
O 18.20492260 17.77497383 20.36247105
6
i = 0, time = 0.0, E = 0.0;
H 17.21283821 21.42524379 22.17231713
H 18.81105879 18.38565379 19.30602229
H 17.63495826 18.49729990 20.31359561
H 17.35091462 21.02169662 20.62846407
O 17.56441255 20.77805186 21.55151302
O 18.08209857 17.86523995 19.74742919
6
i = 0, time = 0.0, E = 0.0;
H 18.32282120 21.04691485 21.52161666
H 17.42439644 17.65660369 19.12907421
H 16.38255801 18.90199001 19.49353543
H 18.27207114 19.51190072 21.14075524
O 18.31784242 20.14434913 21.90538741
O 17.36697024 18.63833793 19.46509057
6
i = 0, time = 0.0, E = 0.0;
H 18.38975972 19.87646078 21.20862476
H 17.13937278 17.58874942 19.10190360
H 17.28048922 18.55035853 20.21414810
H 18.41666999 21.32346442 21.89523182
O 17.94745700 20.43193105 21.93757281
O 17.68541237 18.33679284 19.36140032
6
i = 0, time = 0.0, E = 0.0;
H 16.12030817 24.05116737 22.90206608
H 19.19906663 14.86802418 19.05997769
H 18.86484044 15.67281831 17.90342933
H 15.86609711 22.94951494 21.90793531
O 16.16621515 23.08066424 22.78154895
O 19.54074556 15.67530188 18.55815621
6
i = 0, time = 0.0, E = 0.0;
H 17.37142823 19.09363641 21.24530419
H 18.74540084 20.32820913 18.46313108
H 19.28950188 20.51310544 19.89741622
H 16.91492945 19.11200864 22.76802004
O 16.97323793 18.59912464 21.94476384
O 18.59064412 20.06199316 19.35710981
6
i = 0, time = 0.0, E = 0.0;
H 18.73869935 20.07549798 22.10094450
H 17.42952509 19.13174325 20.18737375
H 16.65865725 17.87470033 20.75251946
H 19.20063862 21.09319663 20.98306700
O 18.43410906 20.51412972 21.21644844
O 17.14827976 18.20191627 19.98146660
6
i = 0, time = 0.0, E = 0.0;
H 15.85387008 20.10503541 20.95368035
H 18.96050672 20.13704116 20.47018985
H 18.31628266 18.81391929 20.15909252
H 16.62093052 19.37729752 22.18338576
O 16.56514560 19.39469326 21.19126870
O 19.16063579 19.30508793 20.02287340
6
i = 0, time = 0.0, E = 0.0;
H 18.28483179 21.95029188 22.59452400
H 18.57863153 17.29609585 19.34848100
H 17.50150918 18.33149657 19.71051317
H 17.98890249 20.41824804 22.55583795
O 17.98411969 21.25285137 21.99708961
O 17.57770752 17.47447268 19.18914126
6
i = 0, time = 0.0, E = 0.0;
H 17.29061083 21.94110506 21.28269353
H 17.86456890 18.36986915 19.66831263
H 18.05936239 17.34280414 18.46502700
H 16.92842552 20.89261447 22.36514081
O 17.64982168 21.28557039 21.89475497
O 18.05130138 17.40708508 19.44446092
6
i = 0, time = 0.0, E = 0.0;
H 16.18048277 20.69431415 21.01025238
H 18.38389928 19.56558745 20.78879090
H 19.46471775 18.97813276 19.89591324
H 16.15212609 19.17529935 20.84818000
O 16.72001742 19.98311806 20.62633209
O 18.97869523 18.71792067 20.66487716
6
i = 0, time = 0.0, E = 0.0;
H 18.35578286 21.00801081 22.15583437
H 18.41815931 17.27394709 19.26449745
H 16.98328913 17.81050353 19.88351175
H 18.02485524 19.98717386 21.24163471
O 17.63180785 20.83256215 21.56113994
O 17.96604428 18.01550876 19.72992179
6
i = 0, time = 0.0, E = 0.0;
H 17.36811484 18.94372221 22.82815354
H 18.25851725 20.31223701 19.02411918
H 19.39634128 19.08787361 18.98457349
H 17.72401883 19.13845167 21.31760187
O 17.04339406 19.35085308 22.00848000
O 18.49366522 19.40884543 19.30721817
6
i = 0, time = 0.0, E = 0.0;
H 16.21225265 21.05729088 21.07460896
H 18.18662357 18.69528768 20.67551506
H 19.23753760 18.37652186 21.73844203
H 17.20460212 20.77727077 19.90454409
O 16.54973844 20.29932832 20.48344600
O 19.10740484 18.37064711 20.75421158
6
i = 0, time = 0.0, E = 0.0;
H 19.31323011 20.16285193 21.39716962
H 18.02957874 17.95658458 19.86793924
H 17.00391659 18.19704405 18.81674988
H 17.80993916 20.02570111 21.08708681
O 18.42629895 20.48246378 21.61642159
O 17.14795329 18.34906567 19.76136712
6
i = 0, time = 0.0, E = 0.0;
H 16.88672485 19.54641741 20.64922310
H 19.73614993 19.99163431 19.44011523
H 19.67594593 18.95477442 20.48633784
H 15.76598075 19.42070302 21.65272382
O 16.25569951 18.85731831 20.99877230
O 19.32434046 19.87521007 20.31226661
6
i = 0, time = 0.0, E = 0.0;
H 19.18478087 20.66022388 21.58672895
H 17.25221541 17.88193493 19.68082590
H 17.22683502 18.86991468 18.46248299
H 17.93151839 19.78687321 21.29459082
O 18.58213425 19.95593332 21.95689845
O 17.02748303 18.82161657 19.42998280
6
i = 0, time = 0.0, E = 0.0;
H 16.68582035 19.46612272 20.86405550
H 19.78646821 19.23347284 20.15549706
H 18.96326100 19.47254550 18.94852071
H 17.10410309 18.94935454 22.18492129
O 16.38877512 18.84861624 21.55797207
O 19.16134735 19.93381339 19.75781766
6
i = 0, time = 0.0, E = 0.0;
H 15.24411068 20.59737368 23.24706402
H 21.40543964 17.06092174 18.55839370
H 20.01977579 16.92699191 19.14761484
H 15.44570413 20.93687910 21.81663148
O 14.99173197 21.28469182 22.60608454
O 20.58514340 17.59850184 18.67085009
6
i = 0, time = 0.0, E = 0.0;
H 17.53974452 19.28240513 20.90823154
H 17.94702930 19.19091895 18.88080621
H 19.36151498 19.00400603 19.51738898
H 16.74416202 20.10886882 22.00257092
O 17.04571376 19.18688091 21.84633554
O 18.56408615 19.56627057 19.52262932
6
i = 0, time = 0.0, E = 0.0;
H 18.75998447 20.30382532 21.07271025
H 15.62963762 19.40530062 20.42748573
H 17.07888907 19.13426237 20.17172128
H 20.05482717 19.31141178 20.68735379
O 19.16997479 19.65752632 20.42530445
O 16.44417948 19.05980104 20.87748906
6
i = 0, time = 0.0, E = 0.0;
H 17.40911358 21.54495437 21.02206281
H 17.46780720 17.99761739 21.73353281
H 17.98876746 18.48283196 20.38508401
H 18.66688154 21.32180291 20.19186419
O 17.81077263 20.96196479 20.36389916
O 17.80280003 17.68023626 20.87757434
6
i = 0, time = 0.0, E = 0.0;
H 17.77337620 21.89580988 21.53951202
H 19.32073073 17.84004465 19.69949018
H 19.01197023 16.94180469 20.87542343
H 16.19992902 21.82380676 21.60928335
O 16.94171353 21.40797056 21.16278112
O 18.62312960 17.28751549 20.05404745
6
i = 0, time = 0.0, E = 0.0;
H 17.32989674 19.75228556 22.74991363
H 19.22265954 19.52267312 19.47756869
H 18.04459753 19.29176758 18.48221464
H 17.31909669 18.14085531 22.73732506
O 16.72832829 18.96066031 22.60093945
O 18.86107097 19.84784752 18.63332147
6
i = 0, time = 0.0, E = 0.0;
H 17.53623354 19.76340155 21.28181077
H 18.11622613 19.29946713 18.73881391
H 19.54180471 18.78188518 19.00781793
H 16.98812066 18.86640554 22.35471907
O 16.81841114 19.72971298 21.91964539
O 18.75422062 19.07856944 19.44464685
6
i = 0, time = 0.0, E = 0.0;
H 16.75598356 20.31619576 20.05846513
H 19.05108568 18.57954154 19.75358888
H 18.36842451 19.10679154 21.00465564
H 15.48318510 19.86338150 20.82707660
O 16.45131477 19.66766394 20.76800841
O 19.28032040 19.06786462 20.57986346
6
i = 0, time = 0.0, E = 0.0;
H 18.59161486 20.88656994 21.97032813
H 17.24978840 17.84814735 19.75002571
H 17.82849905 19.14402570 19.25055652
H 17.64834652 19.70337723 21.50500463
O 18.59271071 19.94844342 21.57391189
O 17.03436500 18.80496503 19.72153259
6
i = 0, time = 0.0, E = 0.0;
H 18.85226811 17.80538988 22.16897649
H 17.56933478 21.13683151 19.66833981
H 18.10447837 19.74696813 19.81526043
H 17.62125170 18.09695432 21.33007988
O 18.30549249 18.52832894 21.84189966
O 17.26934767 20.27522916 19.42161812
6
i = 0, time = 0.0, E = 0.0;
H 17.00097347 19.07914881 22.43550167
H 17.82925020 19.26211020 18.73915256
H 16.96705399 20.31609773 19.11342395
H 17.89027065 19.11850052 21.11596120
O 17.83329401 18.70839442 22.02480576
O 17.89652227 20.03280783 19.33817111
6
i = 0, time = 0.0, E = 0.0;
H 18.85114554 21.46613075 20.82434203
H 17.95005679 18.00227909 19.75187063
H 16.40063527 18.22020966 19.44149715
H 17.68527210 20.37443500 20.97814837
O 18.60900025 20.63787860 21.24745571
O 17.04523893 18.08522910 20.14123817
6
i = 0, time = 0.0, E = 0.0;
H 16.04647877 20.58732717 20.58829004
H 19.48159556 19.37854947 20.95443954
H 18.00983336 18.80919838 21.01028437
H 16.39506570 19.90980402 19.26781589
O 16.73447044 20.11179840 20.13383727
O 18.97988310 18.57213191 21.20288016
6
i = 0, time = 0.0, E = 0.0;
H 16.71769840 19.81919396 22.80797727
H 19.41896373 18.82449441 19.60144531
H 18.24244373 19.80708104 19.39894969
H 16.11408284 18.44688527 22.55328464
O 16.53907959 19.18621787 22.08317572
O 19.13997819 19.61031461 19.09345961
6
i = 0, time = 0.0, E = 0.0;
H 17.41605144 20.72580559 21.88639155
H 17.35120499 19.41927707 18.90519830
H 17.62854337 18.96747223 20.33839893
H 17.93114019 19.47938751 22.54133606
O 18.16637488 20.08504592 21.81730341
O 17.52315721 18.60473976 19.40282554
6
i = 0, time = 0.0, E = 0.0;
H 17.62320484 19.50992261 21.63737615
H 17.92843114 19.05350632 18.70172525
H 19.31337359 19.84784396 18.43088021
H 16.24397493 18.75476673 21.76501466
O 17.03250525 19.12917491 22.31256800
O 18.60775494 19.65044828 19.10516199
6
i = 0, time = 0.0, E = 0.0;
H 17.94571005 20.05787115 21.97272632
H 17.96567703 18.72481372 19.07740839
H 17.94063050 18.66776479 20.55971972
H 17.83608967 21.12032116 20.85727889
O 17.25938177 20.52815352 21.43162540
O 18.34439141 18.16296604 19.86437237
6
i = 0, time = 0.0, E = 0.0;
H 17.42567944 20.41389912 22.36325905
H 18.33786702 18.24422020 20.52827332
H 18.13608582 18.64301403 19.05357564
H 16.15734003 20.93695025 21.86367524
O 16.96957041 20.52925115 21.50309154
O 18.73697069 18.18282902 19.70837699
6
i = 0, time = 0.0, E = 0.0;
H 17.19319916 21.55203291 21.55827437
H 18.20793313 18.73406082 20.32531090
H 19.32674872 18.44459412 19.30212477
H 17.07276190 20.39664254 22.55203947
O 17.08731359 20.57168406 21.57962787
O 18.50936942 18.08437007 19.63631606
6
i = 0, time = 0.0, E = 0.0;
H 17.85872174 18.12943564 21.95229109
H 18.63883121 20.47537545 19.30086841
H 17.60399143 19.70856462 20.15154493
H 16.78047218 19.10330078 22.38420295
O 17.64873354 19.04685546 21.97739284
O 18.00582654 19.71697660 19.23532796
6
i = 0, time = 0.0, E = 0.0;
H 16.20047884 18.63426963 22.73570469
H 19.45895226 20.05356232 18.79994196
H 17.84771632 19.96744641 19.21479882
H 17.62401038 18.15648779 22.70541505
O 17.09844461 19.03706261 22.68955900
O 18.54041859 19.76488119 18.54414505
6
i = 0, time = 0.0, E = 0.0;
H 17.98995202 20.88937052 21.64518273
H 19.06187570 17.98048320 19.74814105
H 17.63723570 18.05120453 19.25796021
H 17.61278285 19.51091512 21.10985396
O 17.24537891 20.23287852 21.65846077
O 18.31972630 18.59299371 19.68201750
6
i = 0, time = 0.0, E = 0.0;
H 16.16193131 19.00202577 20.10420618
H 19.35471291 20.08123736 22.45120156
H 18.51913116 21.10982910 21.57017580
H 17.58202107 18.83579607 20.06385213
O 16.83450267 18.51520675 19.58579150
O 18.77370038 20.14704962 21.60169444
6
i = 0, time = 0.0, E = 0.0;
H 18.49703330 20.04450059 20.71826550
H 17.53191001 17.35318118 20.56955469
H 16.49568862 18.13470920 19.70970584
H 18.65748898 20.57512137 22.04556105
O 18.21842960 20.78645187 21.27798212
O 17.41722271 18.05986269 19.98172829
6
i = 0, time = 0.0, E = 0.0;
H 16.14395937 19.84712346 22.00367104
H 18.30079634 18.42528281 19.09270408
H 18.07969536 19.19205338 20.38135528
H 17.35787973 20.73500208 21.68675507
O 16.90829736 19.86656959 21.46398436
O 18.80924686 18.84794392 19.78807748
6
i = 0, time = 0.0, E = 0.0;
H 15.99914643 19.86758103 20.99773610
H 19.18020929 18.48223509 20.30212101
H 18.30728330 19.68235072 20.26736910
H 16.60506287 18.75718348 21.87453944
O 16.77703564 19.63149004 21.55465316
O 18.92731737 19.17186603 19.67993892
6
i = 0, time = 0.0, E = 0.0;
H 16.58388602 19.84506979 23.15795468
H 17.79299298 19.37485066 19.26523029
H 19.31743730 19.34843947 19.19177483
H 16.86995464 18.98037906 21.96035979
O 17.13041272 19.89251788 22.30317399
O 18.54416658 18.86299373 18.92300367
6
i = 0, time = 0.0, E = 0.0;
H 19.09764479 17.47896199 19.91417011
H 15.64760440 19.97931681 21.22946224
H 17.15851073 19.94131332 21.48280039
H 19.90760818 18.78099926 19.82866694
O 19.11073556 18.42039023 20.26709599
O 16.48527171 20.42132006 21.02965995
6
i = 0, time = 0.0, E = 0.0;
H 17.05918177 20.57976281 25.22710454
H 19.10866249 18.98222390 17.64667690
H 17.84394309 18.13594280 17.32459914
H 17.65932696 20.61746550 23.79506361
O 16.91081016 20.26167058 24.28891093
O 18.69403366 18.44553868 16.91092324
6
i = 0, time = 0.0, E = 0.0;
H 20.21893221 19.30604478 19.98810516
H 16.42321039 18.78718127 21.28770325
H 16.03714494 20.11216414 21.08623451
H 19.72214216 20.35785616 20.81370550
O 19.52309559 19.40407968 20.65899286
O 16.03573550 19.28751397 20.59235936
6
i = 0, time = 0.0, E = 0.0;
H 20.19173377 18.98829405 20.99519118
H 16.35438141 19.12134346 21.60986384
H 16.85571773 19.72505508 20.28552030
H 19.38768504 18.36432801 19.92583836
O 19.46412243 19.21986956 20.40746314
O 16.07025755 19.62067962 20.86652859
6
i = 0, time = 0.0, E = 0.0;
H 17.11619184 19.80358261 21.00803622
H 18.89167394 18.10022675 21.18025746
H 20.28909160 18.91414374 20.93453240
H 15.54737319 20.28418440 21.09251311
O 16.27285010 19.88695340 20.51026219
O 19.32108041 18.89669585 20.67559172
6
i = 0, time = 0.0, E = 0.0;
H 17.31664544 19.28862023 20.75104394
H 19.31530538 18.91495603 20.66761055
H 19.87922537 20.36211181 20.88878063
H 16.11864741 19.27073366 19.69089476
O 16.50800185 18.86422114 20.48500390
O 19.03643950 19.87316532 20.84053032
6
i = 0, time = 0.0, E = 0.0;
H 17.36684752 21.01728490 21.74857592