72
i = 0, time = 0.0, E = 0.0;
H 26.75587588 15.03459892 -0.82239350
H 31.74037383 11.28155192 7.45499034
H 31.25411825 12.61027550 6.67349386
H 28.77644100 14.74317092 8.66546162
H 27.31571874 15.30253294 8.36212698
H 19.95344884 16.74790525 4.73792733
H 19.10248381 17.09486268 3.47867248
H 25.05344654 14.22889277 7.57139482
H 25.49752045 15.57434035 6.89210804
H 25.10285488 18.87043519 1.35735125
H 25.48249643 19.14094965 2.78959846
H 25.69587958 17.40911350 5.13135345
H 27.21006944 17.39795308 5.28021954
H 23.49588088 16.58431443 6.21231035
H 24.43522127 15.94517896 4.97642499
H 24.46663114 16.43266175 3.13886686
H 25.25539947 15.20029859 3.00466484
H 26.45239687 14.44167528 1.26440389
H 27.16398270 15.52586673 2.28228761
H 29.07178406 16.77949407 9.66284703
H 29.44261854 18.30532751 9.82451707
H 19.44197865 13.16931450 3.32962814
H 18.94335573 14.47928716 4.01281478
H 31.30716591 13.65308312 4.46934017
H 31.68829586 14.58014943 5.51370392
H 28.63226877 15.48457209 5.48393327
H 28.55998653 16.21285939 6.85071531
H 32.23327063 16.22198916 6.05558984
H 30.51841143 16.38487107 5.81922916
H 33.54695918 15.13596058 7.85364254
H 33.98406687 16.72148501 7.40599595
H 32.85752138 13.37761762 8.27958113
H 32.44562745 14.59102221 9.26409435
H 31.09622969 16.76844950 3.99350971
H 30.90190617 17.97569251 3.00379582
H 21.86792433 15.42343475 5.81002064
H 21.43984801 16.16516387 7.14651347
H 30.33884684 14.59163821 10.20017432
H 30.80562167 16.08268680 10.48064068
H 22.67370927 14.60793850 3.70855652
H 26.87008067 13.58612496 -0.84486161
H 21.27634070 14.03640135 4.30911708
H 30.11507271 12.48387128 8.81228608
H 29.03596843 12.28390276 10.01127004
H 27.52594304 17.39687363 3.12524416
H 28.80450864 17.28882041 2.41698772
H 27.36136182 16.97444523 0.20691707
H 26.66959470 17.42645088 -1.08660070
O 26.23465591 14.17682277 -0.54199186
O 31.31850998 12.16654221 7.56416804
O 28.30287152 15.58401753 8.42524888
O 19.21066822 16.39714799 4.14989363
O 25.77340445 14.93762594 7.61380699
O 24.83077344 19.45218217 2.07446225
O 26.51406630 17.77224760 4.63489037
O 24.43479005 16.32019139 5.88411273
O 24.39916598 15.47329110 3.43971444
O 26.54612414 14.76219207 2.22284725
O 29.62196578 17.40380781 10.16469362
O 19.31252270 13.59021654 4.18230229
O 31.60580890 13.59073027 5.39333481
O 28.83627988 16.30849923 5.90785820
O 31.42608922 16.24202203 5.44228812
O 33.46507486 15.96239037 7.10508798
O 33.17443142 14.11021103 8.80957675
O 30.65461347 17.06354021 3.17043676
O 21.81110601 16.35015011 6.26570222
O 31.12957870 15.14664128 10.29126110
O 22.21012911 14.23810577 4.52398557
O 29.41950626 12.92780540 9.41940453
O 27.85253453 17.32258511 2.20966076
O 27.17269060 16.72084314 -0.75701979
72
i = 0, time = 0.0, E = 0.0;
H 25.67985590 14.67933644 0.34903959
H 30.57964421 13.24630223 9.42373167
H 31.39372255 12.27657598 8.55268638
H 27.76437893 13.09197347 7.40987104
H 26.49575403 13.90730819 6.78795624
H 20.52447490 17.19258518 3.46972717
H 20.50656117 17.33601296 4.98029108
H 24.16148596 13.91666636 6.44092771
H 24.64886116 12.51275038 6.04408372
H 25.65184245 17.74846401 1.39044004
H 26.04876369 18.38310521 2.71121845
H 26.27150224 17.86774421 5.11815566
H 27.77717772 17.68383238 4.78448400
H 24.36145086 17.35427352 6.56917355
H 25.26976649 16.24191813 6.17631106
H 24.07803211 16.90737479 3.11884313
H 24.61168519 15.49179512 3.17085892
H 25.60746937 13.77017024 2.29258789
H 26.91710314 14.30791278 3.01750889
H 27.83964103 15.21584091 7.97327873
H 27.23722662 16.37542928 8.68817830
H 21.82361316 14.87946519 3.02292047
H 20.73326374 15.12385583 4.05310171
H 31.72856271 14.72112795 7.62672208
H 31.84349972 15.03135235 6.05622091
H 28.56249202 16.61657274 6.90412231
H 28.99340959 15.72452934 5.76383551
H 32.04039249 17.43674540 6.08064785
H 30.54085106 16.94641913 5.64581967
H 33.50483022 17.06415969 7.95949533
H 33.45498802 18.63167076 8.04951470
H 34.75389613 15.13884382 8.39165349
H 33.60579916 14.88940998 7.22810305
H 31.29891653 16.77115213 3.63725966
H 31.60429834 15.97590479 2.39788741
H 22.29513242 16.55990669 6.19938874
H 21.53168728 17.64665341 7.23856377
H 30.03191642 15.80836691 9.07152981
H 31.34052213 16.62796946 8.72169631
H 23.58363661 15.62265202 4.82163356
H 25.41919704 13.16250998 0.18306520
H 22.42827010 14.77541298 5.53931276
H 29.05144290 11.51133379 8.52808852
H 27.56344582 11.13153926 8.49483409
H 27.61686290 16.48445291 3.18363676
H 29.00381590 16.22491259 2.39603409
H 27.75198676 15.94425053 -0.93613724
H 27.65703749 15.82764330 0.64731629
O 25.15847542 13.95163453 0.72721088
O 30.70970905 12.30610021 9.25353456
O 27.40584027 14.01002252 7.17071730
O 20.03323390 16.83045324 4.24816427
O 24.72899191 13.15913123 6.80682881
O 25.32059305 18.37778973 2.07043277
O 26.96413786 17.91205405 4.27954116
O 25.36915597 17.22441996 6.39899794
O 23.83460998 16.01520500 3.44714188
O 25.96269533 13.99560942 3.18355249
O 28.10153348 16.11835033 8.45129739
O 21.27940498 14.36754690 3.66628562
O 32.13271924 14.36190575 6.78954630
O 28.92383717 16.69343635 5.93793471
O 31.49824563 16.95627182 5.38952645
O 32.91397950 17.83598784 7.87095563
O 34.15096253 15.53944855 7.76576501
O 30.86350994 16.48435328 2.79987078
O 21.95515844 17.50891876 6.39501146
O 30.98004197 15.73942755 8.91179330
O 23.26176470 15.29753908 5.74108817
O 28.21895097 11.65924576 8.03613930
O 28.01756162 16.11644795 2.36755787
O 27.25024416 15.55657640 -0.22690021
72
i = 0, time = 0.0, E = 0.0;
H 26.01053879 14.43315842 0.55097144
H 31.24840981 11.90175682 7.85178885
H 30.69575463 13.06910176 8.71989780
H 27.35980532 13.96527410 8.56187253
H 26.59723881 15.06995964 7.82981452
H 19.56590523 16.54795271 4.50760621
H 20.91652121 16.02311275 4.98499767
H 24.53626085 14.45770181 6.27715512
H 25.22238182 15.86419225 6.37443377
H 24.03757356 17.83266297 1.46660096
H 23.38174670 18.12264484 -0.02391342
H 27.10249256 18.02730617 5.03203427
H 27.94086385 16.76535868 4.94636033
H 24.52380007 17.82623510 5.64926836
H 24.91378699 16.97477483 4.56040713
H 24.35641108 15.15302397 2.37424942
H 25.64975489 15.35381148 3.08031843
H 27.02332129 13.95565070 2.37663921
H 27.81066068 15.26945286 2.47889215
H 29.02625954 16.58183771 9.84460963
H 28.11316563 17.86891107 9.72686882
H 21.36980595 13.78165452 2.16283330
H 20.87596595 14.84313804 3.21770898
H 29.37927877 14.98914548 8.19470528
H 30.70573226 14.80084323 7.40995425
H 27.79547546 14.71343403 4.63444481
H 27.79847916 14.69088815 6.32067516
H 31.38673491 15.49487916 5.43899971
H 30.19968171 14.60975803 5.41224878
H 32.69013377 17.31935611 6.45816972
H 31.50453419 18.21793591 6.26608631
H 33.64052578 15.81014274 7.61640713
H 32.90470962 16.67093328 8.72309420
H 31.80330913 17.19206578 2.93709628
H 30.52563924 17.60918104 3.76588876
H 22.58664444 15.47625891 6.38676974
H 21.52928951 15.65551035 7.50316131
H 31.44597726 15.55231021 9.72417132
H 31.50143231 17.07459024 10.16522778
H 24.02539144 14.29768447 4.26973713
H 26.13187093 12.87447737 0.41774644
H 22.54421575 13.81562074 4.40499802
H 28.55206222 11.88271957 8.90268240
H 28.21398358 12.65142904 10.17175827
H 28.30092570 17.80834521 2.47071701
H 29.27860230 16.91562280 1.79494843
H 27.15914312 16.47757789 0.81250772
H 25.62814710 16.45640414 0.38969769
O 25.71777311 13.57226642 1.01131792
O 30.73029770 12.04894499 8.69818114
O 27.49841889 14.89397910 8.16800011
O 20.41035274 16.18790085 4.15298965
O 25.09471247 15.02255383 6.86637062
O 24.15915109 17.67968229 0.47925387
O 28.00325605 17.71175836 4.73953115
O 25.25926517 17.29902054 5.40276008
O 24.77030866 15.77360990 3.05514003
O 27.24399374 14.70229994 2.99163172
O 29.03909217 17.57380999 9.77157672
O 21.52471828 14.08347353 3.07415404
O 30.31764154 14.74366777 8.32450588
O 28.25568303 14.97030246 5.48602391
O 31.18784008 14.60828915 5.66806511
O 31.97346801 17.54700768 5.79930269
O 33.72024484 16.70333648 7.97828777
O 30.80712557 17.26583268 2.89663140
O 21.77313766 15.96084347 6.57788431
O 32.02566720 16.25331170 10.11944042
O 23.37935410 14.00614917 4.93582323
O 27.82493803 12.26183429 9.38472791
O 28.30281178 16.99805295 1.87487998
O 26.49996411 16.08948997 0.16615856
72
i = 0, time = 0.0, E = 0.0;
H 26.49605293 13.74253509 -0.80334700
H 31.68662956 13.06006716 9.54648148
H 30.51631449 13.58252053 8.48656360
H 27.67565784 13.32059228 8.61277008
H 26.30845865 14.07641206 8.22060975
H 21.22113408 17.57584656 4.37719464
H 19.80444930 17.82352675 3.88653236
H 23.82560956 14.21516848 6.85932506
H 24.93487065 15.26365195 7.14790197
H 25.85279253 17.77393648 1.82239734
H 24.37750459 17.90353704 1.34494949
H 26.71898600 17.49126039 4.29807754
H 28.22587303 17.84515537 4.77524544
H 24.59453689 16.87913841 5.55817510
H 25.18035875 15.82467094 4.80584870
H 24.94825054 15.69532127 2.79860760
H 25.97721012 14.42533922 2.97389281
H 27.11785278 13.81399123 1.22823580
H 27.83859752 14.67421249 2.37398206
H 28.38049799 17.28465059 8.19021969
H 27.97258925 15.95756304 8.80479254
H 23.03424280 16.38527480 2.30458747
H 21.50640792 16.54249564 2.52376268
H 31.26186955 14.74640149 6.97569292
H 29.97197232 13.88775533 6.50347391
H 28.34696290 13.57716407 4.85051417
H 27.83125385 13.81910945 6.31585033
H 29.81178250 17.11489230 6.46078513
H 28.62234670 16.16737786 6.14615180
H 32.55287013 17.15521973 6.83012659
H 31.62468862 16.75897713 7.98497126
H 33.56849369 14.76795805 8.67303574
H 32.88738334 13.63155480 7.77265103
H 30.73682078 17.25601246 4.19557508
H 30.58074813 15.66283455 4.36654233
H 22.67871278 16.00866764 5.21676418
H 22.21944378 16.79907060 6.52969458
H 30.87943598 15.36495011 9.95088858
H 29.97115410 16.61590052 9.50000253
H 23.79337106 14.25592616 4.22855054
H 26.76863737 15.17038546 -0.24184843
H 22.22340765 13.93803596 4.42219758
H 29.10142542 13.06132127 10.30665115
H 27.93020649 12.10449365 10.83377759
H 27.99876883 17.01308611 2.89523247
H 29.42279431 16.37649266 2.57436722
H 27.86941987 17.05304128 0.79748142
H 27.31741053 18.28905290 -0.02956012
O 27.16414140 14.28673293 -0.35491936
O 30.75756829 13.38437908 9.50936744
O 27.29129837 14.08647478 8.08822242
O 20.69615452 17.61834668 3.51870967
O 24.28809236 14.64841144 7.61665105
O 24.90336795 17.60019501 2.10702993
O 27.50733379 18.02401325 4.08485611
O 25.46771564 16.47849400 5.46555113
O 25.21537399 14.94438107 3.40630574
O 27.24366118 13.83814412 2.23675636
O 28.30429877 16.84981672 9.06559178
O 22.21063213 15.95864880 2.03162480
O 30.81210896 13.88461310 6.98632599
O 28.55808304 14.06366534 5.66953723
O 28.83999451 17.11049201 6.30185882
O 31.60862255 17.02787247 7.04451371
O 33.43182218 13.85097183 8.55766831
O 30.71680165 16.40255026 3.70211841
O 22.62871362 16.91874195 5.62464037
O 30.90625959 16.19553424 9.42865350
O 23.01515780 14.35363011 4.83631141
O 28.11532486 12.79081187 10.14387000
O 28.43858864 16.32906480 2.25680645
O 27.10475936 17.37400955 0.22823967
72
i = 0, time = 0.0, E = 0.0;
H 27.33779304 14.81380949 -0.28751273
H 30.68785820 11.23389916 9.83269439
H 30.71952854 12.41690247 8.84213562
H 26.70856062 13.86284249 8.79269603
H 25.66817591 15.09202594 8.99393582
H 19.77457537 16.54524924 4.39089880
H 20.17919943 16.12601828 5.84252539
H 23.97111561 14.17604918 7.13776186
H 24.69930077 15.40046209 6.62027387
H 24.77573560 18.54374483 1.17722420
H 25.68689478 17.73966004 0.30272191
H 25.94399960 18.18408251 3.94817979
H 26.55134598 19.56992110 4.20342533
H 24.11970327 17.27976984 5.26572802
H 24.64806680 16.16828628 4.27838474
H 24.57169067 16.33595194 1.74014427
H 25.39250953 15.20628085 2.45072551
H 27.31041889 14.19843364 1.76962564
H 27.55992511 15.28936925 2.88542912
H 27.75160090 15.64347052 8.77992992
H 28.13585680 17.13053928 8.41885881
H 19.78364950 13.12306448 3.26276617
H 19.62356106 14.59921931 4.02396541
H 31.21141910 14.49998811 8.30442038
H 30.74663772 13.67350817 6.99959710
H 29.30172572 15.24579470 5.21586538
H 29.19057905 15.64568209 6.73178159
H 31.04108827 16.18280684 5.91011657
H 32.27457786 17.11653554 6.45779403
H 33.38306498 18.35412316 8.14076316
H 33.95003324 16.87184632 7.91028421
H 33.79986003 14.35957609 7.95044336
H 35.18423456 14.66008570 8.74733083
H 31.26210628 17.23311595 4.27478304
H 31.82089017 17.80068307 2.93311021
H 22.22559718 15.93956103 5.40523723
H 22.60328938 16.16616364 6.78322328
H 31.58353154 16.39485229 9.27899962
H 29.95906788 16.08584961 9.27899927
H 23.26309836 14.52696836 3.64942499
H 26.68750219 13.37396061 -0.11480319
H 21.89262002 14.02894070 4.17865013
H 28.27072276 12.28007838 8.81454220
H 26.95720411 11.57372197 9.25577353
H 27.94270181 17.79907096 2.84282564
H 29.42178229 17.13467903 2.86374398
H 27.93005757 17.48623389 -0.56400813
H 27.96662014 17.10977300 0.96067159
O 27.47773601 13.89636658 0.20037600
O 30.11504502 11.87398887 9.36946668
O 26.53905136 14.68143728 9.29899988
O 19.51309761 15.94946401 5.15879414
O 24.27800520 15.03960255 7.49800783
O 24.70873344 17.82893714 0.52707130
O 26.51042590 18.85063000 3.53241205
O 24.92776315 16.91670615 4.87624144
O 24.44233356 15.54883725 2.38671186
O 27.09966825 14.43894765 2.78801148
O 28.56022285 16.23901843 8.43749622
O 20.09914903 14.08505755 3.19979249
O 31.45622275 13.75041305 7.65101690
O 29.70942826 15.16685017 6.09084718
O 31.90570563 16.73819288 5.66231324
O 33.14790197 17.40913856 8.04796130
O 34.58913055 14.99126743 8.11301270
O 30.99199122 17.54863433 3.36861126
O 22.09536239 16.66423970 6.09397911
O 30.94280401 15.74206477 9.54870820
O 22.80670487 14.17730864 4.46080809
O 27.32832306 12.25541089 8.62910170
O 28.47567902 17.07745030 2.47675516
O 27.42318125 16.99440500 0.09659213
72
i = 0, time = 0.0, E = 0.0;
H 24.92311296 16.14809528 -0.19728415
H 30.52832907 12.48461639 7.48754744
H 31.10909109 11.30543791 8.42435871
H 27.63786859 13.66516216 8.37514232
H 26.35825268 14.52536203 8.26607348
H 23.14693649 17.82418590 2.68657099
H 22.54283671 16.92133604 3.79509424
H 24.35388417 13.61082986 6.94001136
H 25.03578575 12.64147068 7.88147033
H 25.19052350 19.23921367 2.87537673
H 24.44585899 20.34245742 2.15992148
H 26.34476878 17.98272182 4.35908682
H 26.90717823 19.47353733 4.18540987
H 24.71236428 17.20499664 5.64796485
H 25.53376375 16.26656388 4.82920766
H 24.64101448 15.33986364 3.00547212
H 26.08188202 14.74644324 2.91627734
H 26.13408157 14.94503528 1.12274933
H 27.44950200 15.56370744 1.84020025
H 27.92130811 15.06887451 10.00643660
H 27.97353949 16.33615896 10.97147531
H 22.06360014 14.99344519 2.85698798
H 20.98025938 13.78694188 2.98230700
H 31.02537525 14.47444303 8.29249184
H 30.49193899 14.67203414 6.85704954
H 27.29893123 16.86198909 6.58493639
H 28.25633683 16.24430974 7.73337959
H 31.13885215 16.49457014 6.08339144
H 29.59272764 16.48377313 6.01205910
H 33.31930848 16.02515193 6.96573569
H 33.49212588 16.86008107 5.65200845
H 33.31375623 15.14423487 8.99463949
H 33.02361101 14.30991648 7.65141644
H 30.28028981 16.23694664 3.85316830
H 30.82388629 15.43755808 2.62598352
H 23.20049418 15.72623946 5.99429215
H 22.21163274 16.97150593 6.40329366
H 31.32250957 14.75985293 10.64156312
H 30.02450304 15.15967410 10.12832567
H 24.54790721 14.09396963 4.63505884
H 25.15793045 14.79282844 -1.13445515
H 22.98105663 13.85792865 4.86636182
H 28.92782295 11.61828905 8.71953172
H 27.61349304 10.92790273 9.16226086
H 27.71330296 17.92915810 2.52589734
H 28.96490224 17.01678512 1.96612554
H 26.63212260 17.59947990 0.70051864
H 25.46828255 18.60587067 0.93109028
O 24.91772751 15.12036394 -0.22178459
O 30.35291583 11.54657280 7.85723953
O 27.29563794 14.55464755 8.60947935
O 22.74245452 16.92413178 2.88405889
O 24.96959399 13.64069931 7.74301625
O 24.44497525 19.33687635 2.24220936
O 26.63792241 18.70928647 3.62023239
O 25.68861495 17.06050290 5.46952041
O 25.32676716 15.07563454 3.64588073
O 26.82054857 14.79043465 1.78468589
O 28.48925048 15.52614738 10.71152194
O 21.75145999 14.20985512 3.43462325
O 30.98218699 14.00624956 7.42197691
O 28.22299456 16.81939753 6.96148222
O 30.36074215 16.10799553 5.57306898
O 32.90823288 16.78946276 6.41765848
O 33.71980322 14.90951915 8.11261880
O 30.22995068 16.22354964 2.84294525
O 22.94550235 16.72539694 5.82160240
O 30.99206761 15.02514521 9.80240572
O 23.81394498 13.98854105 5.35355041
O 28.00071902 11.79813822 9.11149790
O 27.99800644 17.26018140 1.85549575
O 25.69748816 17.81025259 0.37103730
72
i = 0, time = 0.0, E = 0.0;
H 26.79764407 15.08441101 -1.31486749
H 29.95328210 11.34784122 8.97691850
H 30.94898402 12.42381383 9.26215767
H 26.58770811 13.84707018 8.73219417
H 26.24646607 15.12363968 7.84018232
H 21.23087633 17.60002845 4.14726273
H 20.16678226 18.06019992 3.22091389
H 24.20771302 15.11246230 6.61921134
H 25.12652523 16.30475735 6.65489921
H 26.35024374 18.43506019 2.26532674
H 25.72371153 17.59173618 1.07553702
H 27.26529428 17.60646805 5.06835532
H 28.67821770 17.23918267 4.77208079
H 24.57451847 18.54337428 4.93511197
H 24.49624878 17.24776693 4.11140738
H 23.02073916 16.05592529 2.59396242
H 24.29930763 15.23530582 2.33613662
H 25.54017530 13.93819791 0.34367709
H 26.39917608 14.64104179 1.57892120
H 27.87919743 16.30346129 10.08255080
H 28.53928309 15.04298275 10.58151825
H 20.51163890 14.38015552 1.46654419
H 20.51199168 15.75474044 2.38308213
H 31.34703088 14.50250885 8.76339792
H 32.59614132 13.77621984 8.31277897
H 29.77117805 14.07839572 7.28134053
H 28.20852830 14.46589700 7.43345582
H 30.74026035 17.08066285 5.32584237
H 29.94466843 15.70335192 5.96402952
H 32.86788507 17.80977580 7.49466909
H 31.90934961 16.90789085 8.27299976
H 33.99727594 15.62339632 8.09501773
H 34.78566360 14.30824936 7.79807470
H 30.86756034 15.25950635 3.71269971
H 31.93958262 15.51573369 2.49642448
H 22.22326295 16.48693585 6.00483697
H 20.93787260 17.35304296 6.49262072
H 29.86402664 15.98033027 7.92253080
H 29.84317780 16.43212757 9.43015308
H 23.12910111 15.06490460 4.58511393
H 26.63302651 13.71297980 -1.99741827
H 21.63623847 14.84997678 4.88655113
H 29.19782041 12.70800571 10.35902636
H 28.54328579 12.73924162 11.77426310
H 28.05229737 16.74081318 2.76098638
H 29.37632921 15.87930537 2.50757134
H 28.13687587 16.17681609 0.69482309
H 28.11212383 16.89212639 -0.79129399
O 26.11296795 14.39176330 -1.57017149
O 30.32715119 11.79440173 9.73573750
O 26.93513788 14.76509530 8.53657483
O 20.95693821 17.47864525 3.20906620
O 24.83149817 15.54536512 7.27138563
O 26.04065266 18.47606029 1.34196313
O 28.07477548 17.97483858 4.65453194
O 25.12562372 17.74740829 4.69465267
O 23.80025430 15.69739563 3.05394896
O 25.60270203 14.07871664 1.37296169
O 28.67012994 16.00448398 10.59664899
O 20.72564062 14.75358665 2.40261211
O 31.59567195 13.68274993 8.24745937
O 29.04214650 14.61343639 6.87396929
O 30.33211777 16.21260826 5.09323636
O 32.89100681 17.11650016 8.15704297
O 34.10091708 14.61698334 8.41574148
O 31.04020140 15.11858445 2.72150129
O 21.67088923 17.33083990 5.92677559
O 30.44001869 16.38000507 8.59240289
O 22.50292599 14.96782343 5.38037164
O 28.35727140 13.04802730 10.86198441
O 28.35747405 15.94446206 2.28636949
O 27.72011201 16.20364761 -0.24485638
72
i = 0, time = 0.0, E = 0.0;
H 25.11156766 12.48529369 0.12969185
H 31.11959306 11.93095186 9.07238725
H 31.62880544 13.36871342 9.21818803
H 27.43200131 14.20474856 8.65680749
H 26.23643170 15.06234367 7.99654200
H 18.59693916 17.57204524 4.30034648
H 18.68149881 16.08509232 4.78036525
H 23.82158229 15.14592263 7.78931627
H 24.49661174 16.32684944 7.18461587
H 28.48316958 18.96917462 1.73907575
H 27.26630490 18.67213055 2.65172954
H 25.96598955 18.01544305 4.89847768
H 27.39827402 17.32784410 4.99001768
H 23.82226306 17.63949497 5.09632419
H 24.54001118 16.32088749 4.75011773
H 24.40606694 14.89212340 2.34688179
H 25.64617974 15.20208494 3.27149128
H 26.71880263 13.56834474 2.42476651
H 27.87892946 14.76031081 2.29798423
H 28.04735901 16.24150535 9.21051373
H 27.87779053 17.14235321 10.49518097
H 19.29340475 14.26449046 1.94228517
H 19.32591741 15.70239898 2.57539920
H 32.09283219 15.71201431 9.15694492
H 32.27397274 15.25422750 7.63771673
H 27.85231255 15.08354909 4.60870464
H 27.65329596 15.39822389 6.16382866
H 31.53311799 16.55592194 5.56115882
H 30.07203342 15.78982376 5.38432090
H 33.08276924 18.24523807 6.89525634
H 33.60172049 16.93307645 6.37490905
H 35.77791264 15.70838675 7.59424094
H 34.30707559 15.36717316 8.17058237
H 31.41128537 15.44121882 3.30874657
H 31.80582062 16.75294741 2.48900014
H 21.29696548 14.79589008 5.80038909
H 20.78178014 14.70187183 7.32887218
H 31.31091025 17.30700984 10.71638274
H 30.21743949 16.87901176 9.72359466
H 22.29477632 14.45220367 3.85009007
H 25.82546877 13.86904795 0.14793545
H 20.78255552 14.36335452 3.58549464
H 29.36881871 13.27484105 10.06026913
H 28.46023067 14.51344743 10.56547431
H 28.64918968 16.69418415 1.35201155
H 29.83242670 15.64755997 1.68161839
H 27.67497426 14.30930303 -1.31459418
H 28.06871946 15.04927294 0.06091563
O 25.38966260 13.20265212 0.77825591
O 31.04914003 12.70355863 9.72599231
O 27.19215276 14.85472018 7.90309051
O 18.43036294 16.65469452 4.07720199
O 24.65782480 15.69133776 7.90719067
O 27.60753083 18.53524841 1.73246817
O 26.90452456 18.06724433 4.54347316
O 24.14804586 16.85072291 5.55048077
O 24.64798059 15.10793797 3.26889594
O 27.20986341 14.29171583 2.89324268
O 28.54480767 16.65174105 9.98724108
O 19.90037614 14.97929900 2.21106689
O 32.51980521 15.03938978 8.52098622
O 28.14423828 15.70787837 5.34706706
O 31.07674959 15.69053685 5.31377999
O 32.93508353 17.58131382 6.18980907
O 34.83835406 16.01950749 7.61133177
O 31.42699129 15.84295732 2.40385969
O 21.29148328 15.26085505 6.68813565
O 31.19925847 17.04536641 9.76127499
O 21.45306699 13.99856688 4.19630765
O 28.45719915 13.60788460 10.24746539
O 28.94603193 15.73990039 1.22506294
O 27.27691122 14.81641252 -0.56052928
72
i = 0, time = 0.0, E = 0.0;
H 25.93462373 14.76288500 -0.18996684
H 32.11468995 12.78584217 8.87917944
H 31.19642139 12.69175330 7.65235896
H 28.45940328 15.51193286 8.98171766
H 27.04991149 15.57198444 8.34011714
H 20.16183967 16.14457192 4.52037628
H 19.20615773 16.95175669 3.62039315
H 25.57135202 13.93848621 6.98986031
H 25.05968014 15.40226530 6.68618695
H 24.71604897 18.77755819 3.05868629
H 25.83368932 17.70598637 3.09747186
H 25.90044881 17.65105199 5.15356189
H 27.45662038 17.50388826 5.43110118
H 23.48912041 16.60318059 5.78042729
H 24.64611544 16.19462760 4.66662681
H 24.15856917 15.70766203 2.60295861
H 25.54163160 14.85705537 2.97829291
H 26.70815832 13.91132085 1.53591837
H 27.39623677 15.05251409 2.49926107
H 28.92905029 18.24957340 9.13025818
H 30.00477114 17.47127752 8.37330337
H 21.29704450 15.86020035 1.39944323
H 20.55169772 15.80057885 2.94674402
H 31.13680516 13.71718421 5.34909079
H 31.32803384 12.26317294 5.02680678
H 27.95031188 15.44815211 5.59755907
H 28.19079216 15.99268074 7.05963057
H 31.61307529 15.77734877 5.97487211
H 30.12743478 15.97177086 5.61801118
H 32.35601736 17.19171431 7.77678638
H 32.33493928 15.85868865 8.42138345
H 33.92412429 13.43220595 10.17984415
H 32.99580349 14.60811024 9.72212128
H 30.77324059 16.18260311 3.65745419
H 31.30323763 17.00899922 2.48746581
H 22.03775877 15.14149956 5.09801628
H 21.11722158 15.60554942 6.41904376
H 30.89985720 15.28461585 10.14382309
H 30.83493669 16.85328090 10.20689291
H 23.37959902 14.37540364 3.93627795
H 26.05295428 13.28403629 -0.77002989
H 21.90361008 14.26976216 3.40894147
H 30.23814605 13.52191835 9.29893292
H 29.01043016 13.42936821 10.26534278
H 27.74575385 17.16638535 3.44854957
H 28.94938184 16.74982650 2.49137830
H 26.83253728 16.66275522 0.76184865
H 25.42619617 16.82699258 0.32939227
O 25.88780561 13.79799518 0.03303647
O 31.14958000 12.62766431 8.61787577
O 27.81656895 16.11950095 8.58749637
O 19.28616379 16.06286033 3.99081599
O 25.69691993 14.83184356 7.26787407
O 25.21413414 18.18874570 2.44390635
O 26.74489650 17.84033248 4.77097164
O 24.44118217 16.60461210 5.60011338
O 24.66401437 15.28951798 3.31418025
O 26.93893348 14.19240044 2.47325962
O 29.92045374 18.30226022 8.93746427
O 21.39320489 15.60842306 2.37672257
O 31.46177561 12.84678195 5.73530461
O 28.40670390 16.18382543 6.09990638
O 30.97321252 15.57482010 5.21226223
O 32.01468687 16.28657419 7.59876397
O 33.35600324 13.76341067 9.45980098
O 30.56320735 16.48982767 2.65848795
O 21.54583933 15.88866083 5.61765175
O 31.49876700 16.09342980 10.18331250
O 22.48502163 14.00209942 4.12840541
O 29.55435741 14.13757353 9.81808723
O 27.94977950 16.86358983 2.51434726
O 26.28287348 16.42454166 -0.00014569
72
i = 0, time = 0.0, E = 0.0;
H 27.25550443 14.36401908 -0.21818903
H 31.33046995 11.73791640 8.09662220
H 30.48685753 12.93872915 7.77797699
H 28.13913346 14.14294527 9.16212181
H 26.77455365 14.49611422 8.41089955
H 21.39715628 16.60930856 4.39393035
H 21.18904462 17.60900602 3.14054444
H 25.17791627 13.04399389 7.86499278
H 24.64931818 14.39862100 7.25794636
H 24.58624087 18.98680645 1.43873551
H 25.28192676 18.39301469 2.78676967
H 25.83750416 17.02074511 5.04655550
H 27.16488838 17.80563405 5.12220832
H 23.73796176 15.80437742 5.81209316
H 24.81030163 15.46269176 4.66407245
H 24.83150288 16.23986908 2.35843739
H 25.86998487 15.08874176 2.72547470
H 27.48686508 13.99623282 1.88734834
H 27.94760751 15.37262247 2.55489876
H 29.10749784 16.80063845 8.89587176
H 29.95527130 17.70414191 8.00987159
H 19.98615783 15.92034068 1.39765945
H 19.73922000 15.99875450 2.84263770
H 31.59579253 14.41111261 6.50345323
H 30.08367204 14.48651251 6.00154294
H 27.63297261 15.97215500 5.87512952
H 28.29432172 15.65782601 7.16598645
H 31.01528995 17.47745201 5.83199879
H 29.50131595 17.03656151 5.94895253
H 33.29989049 15.69473501 7.54273099
H 31.81190007 16.15373776 7.72125730
H 33.23529170 15.07517081 9.50964147
H 34.77453468 15.26015620 9.50199617
H 29.91578992 18.37330195 4.35877004
H 30.54250436 18.79577298 3.06959087
H 22.21641505 14.68025508 4.95173536
H 21.65105966 15.34310943 6.37174987
H 31.43606226 14.51208291 10.03731634
H 31.39810643 16.01895753 9.88804580
H 23.03711208 14.31974241 3.16461702
H 28.54472729 13.61438684 -0.33004478
H 21.58556275 14.57462273 3.05320643
H 29.58063375 12.65917025 9.94572544
H 28.28792431 11.98348313 10.25549072
H 27.45776370 17.28338130 2.77985334
H 28.87687375 17.55153596 2.35423485
H 27.28708336 16.64983865 0.50832414
H 25.71947754 16.38633670 0.24615618
O 27.65932326 13.52255546 0.09964268
O 30.65266892 12.33381764 8.53236095
O 27.59210083 14.89302788 8.71583296
O 20.75913346 17.25691489 3.92071352
O 24.93750728 14.00716299 8.11318594
O 24.88506606 18.15119362 1.90709842
O 26.38368700 17.70460129 4.53508199
O 24.76099489 15.71272943 5.66560872
O 24.87698399 15.38934943 2.81006412
O 27.49011412 14.49760900 2.76993138
O 29.99678347 17.17088159 8.82943164
O 20.03458886 15.36826086 2.17106529
O 30.75148747 13.85170038 6.37730182
O 28.51581912 15.88311589 6.23941232
O 30.06986084 17.81419120 5.78402021
O 32.46520484 15.97829550 7.06075059
O 34.03595355 14.87276215 8.93349033
O 29.64506800 18.64104914 3.44038619
O 22.07997953 15.47762194 5.53674476
O 31.94071245 15.32302642 10.23303043
O 22.20077321 13.97910428 3.60571917
O 28.66795846 12.83348184 10.33615943
O 28.07903628 17.00051782 2.08605952
O 26.65946553 16.22130715 -0.11470503
72
i = 0, time = 0.0, E = 0.0;
H 26.44045574 14.14844192 0.04517744
H 31.44271871 13.63649140 10.71140542
H 30.94300755 13.12245933 9.33231810
H 27.78791856 13.28423527 7.85150045
H 26.83246281 14.46231435 7.42558623
H 18.97404267 17.59110479 5.29574953
H 20.50085426 17.66173712 5.27600305
H 24.74664803 14.69228466 7.27940240
H 25.28299108 15.88548130 6.39549159
H 24.18715541 18.27737391 0.76371441
H 25.29375807 18.12896055 1.91418509
H 25.80686664 18.24524840 3.90735021
H 26.03169910 19.72542427 3.75088034
H 23.74812240 17.35861627 5.12935201
H 24.54889698 16.58061409 4.09692973
H 24.16931936 16.14705715 2.02320605
H 25.16287889 15.14232405 2.84948191
H 26.62493394 14.00563286 2.30456043
H 27.32455278 15.18466449 2.79933023
H 29.00697524 16.54334907 8.54499400
H 28.94206480 15.53126143 9.79115931
H 18.81037603 14.32884626 3.57593358
H 19.55990547 15.31678952 4.49729915
H 30.46570682 14.54684112 7.08488379
H 30.15198402 13.12544575 6.79465228
H 29.75103186 16.34819989 6.06567102
H 28.65026366 15.37743473 6.60233933
H 32.34536725 16.72378320 5.60557796
H 31.63309465 15.26800981 5.68674435
H 33.77748354 16.54102693 7.12045287
H 34.82192555 17.47756901 6.29727750
H 32.65885535 14.40704979 8.05913991
H 32.59160721 15.57513302 9.13636293
H 31.58763013 16.22681987 3.29194094
H 31.39135995 15.17953101 2.24754243
H 22.18152908 15.90016144 5.36991029
H 22.21075861 16.36671778 6.79531919
H 32.18476943 16.46277758 11.20978660
H 30.83055551 16.40504585 10.21839308
H 22.64479756 14.83731481 3.84390037
H 26.10628016 12.57898145 0.24030552
H 21.13670964 14.33807468 4.27126615
H 28.96252530 12.35654467 9.74004416
H 28.02461634 11.22195388 9.80526881
H 28.66852335 17.42874648 2.68122321
H 29.61885936 16.20206134 2.30479956
H 27.70686419 15.88192142 0.44654171
H 26.49400278 16.57827361 -0.17145732
O 26.62082973 13.34525999 0.60366195
O 30.74545737 13.09560949 10.26677187
O 27.65111886 13.94319600 7.18340853
O 19.73997059 17.22149043 4.81605230
O 25.32408163 15.49619855 7.31297755
O 24.89159261 17.65631597 1.11915755
O 26.16425456 18.89035553 3.25983736
O 24.69108044 17.12445184 4.94116085
O 24.19798423 15.48361155 2.77330784
O 26.58149445 14.57205557 3.10806560
O 29.15019541 16.48359589 9.58960075
O 19.61427063 14.37404081 4.16843682
O 30.93855672 13.67475092 7.06801306
O 29.32942230 16.06733816 6.92188475
O 31.63096277 16.12731442 5.13293224
O 33.90027052 17.21433776 6.37080935
O 32.95432145 15.33698109 8.22766160
O 31.33773989 16.18013152 2.35603491
O 22.20192006 16.80582359 5.92161512
O 31.71942923 15.97850634 10.54713207
O 22.06386786 14.52136205 4.57726064
O 28.16472296 12.04412963 9.30540891
O 28.70934707 16.61677145 2.08289538
O 26.99122415 15.72833878 -0.23089325
72
i = 0, time = 0.0, E = 0.0;
H 26.13188958 15.21912409 -0.04655310
H 30.52195863 12.42150469 8.53234203
H 30.87692090 11.98008412 9.95341759
H 26.93120229 13.60797048 9.98638276
H 26.56807130 14.74534801 8.93543990
H 23.53356331 18.54913243 3.32553509