57
i = 0, time = 0.0, E = 0.0;
H 18.35222103 22.06923169 16.78861069
H 23.77193814 21.16676353 17.66449441
H 22.33138886 20.94322661 17.06930905
H 17.66531109 17.67219205 16.93520851
H 18.44322284 17.24027446 18.20465110
H 15.78977850 22.81129086 19.24090367
H 17.12449359 22.26349816 19.86911461
H 17.88082775 16.62005464 20.27647135
H 18.22994749 18.25830538 20.31142271
H 18.56285755 23.81476397 23.14503108
H 18.36457851 23.91490398 21.64570404
H 20.38516879 17.79733690 22.14663184
H 19.77139526 17.14939214 23.36838483
H 20.64508955 20.93448255 16.18163815
H 20.74644018 19.22555473 16.22848876
H 25.64324179 16.90186878 17.69430242
H 24.54782607 17.16104695 16.50465991
H 20.29442095 17.14453146 17.06538756
H 21.75258662 17.00542806 16.66232904
H 15.00058744 20.69255895 21.78406443
H 15.52081471 20.03740381 20.57395547
H 25.00901888 19.62263937 16.65904296
H 26.19435814 20.46605151 16.63987800
H 18.71164461 21.24580663 21.15374586
H 19.92084752 22.24299061 20.78050951
H 23.98193611 16.90084579 14.17446917
H 23.45325728 18.04625053 14.89988096
H 20.66086081 17.06705971 20.09505048
H 22.09148951 17.50504590 20.33672938
H 21.97727810 21.72103428 19.53634481
H 22.07372666 20.40098321 20.35231746
H 22.62119995 19.96079156 14.97086616
H 24.13537285 19.82511514 14.58198710
H 18.96095693 19.14294513 22.21643706
H 17.57241668 19.58983056 22.05451110
H 23.76007278 18.31725111 18.79136725
H 22.23227387 18.61900350 18.55315282
H 19.13227053 20.94238183 17.44073145
O 18.91934873 21.25523111 16.49385424
O 22.82897425 21.47123220 17.73925070
O 18.37573856 17.04463472 17.19777756
O 16.27334810 21.96886132 19.46157211
O 18.40645652 17.37785853 19.91984667
O 18.31953152 24.49476686 22.47165978
O 19.91725467 18.01395933 23.04453069
O 21.17129421 20.11787763 16.03306999
O 24.91689595 17.49052085 17.42570555
O 21.17068011 17.67490051 17.12142604
O 15.30875180 19.78947169 21.49300319
O 25.34425257 20.45173400 16.19929740
O 18.91683560 22.19827569 20.85519639
O 23.73256194 17.09343824 15.09999342
O 21.27468441 17.15880121 20.83144945
O 21.73073320 21.32848128 20.41242568
O 23.27427406 19.49616921 14.34872414
O 18.44802444 19.69949681 21.53041179
O 22.91812458 18.61596334 19.22648754
57
i = 0, time = 0.0, E = 0.0;
H 18.36328680 17.99085435 16.01731856
H 22.38394151 21.60403810 17.25683350
H 23.79735266 21.90808377 18.01324941
H 19.85832434 17.01611501 16.75458822
H 20.20742294 15.72102092 17.38073734
H 17.73345718 23.47963389 21.09933293
H 18.51166311 22.96512036 19.83718827
H 17.31666820 17.33766223 18.76801831
H 16.99621862 16.30520068 17.56669532
H 20.48060142 22.88444163 18.49418869
H 19.54368835 21.80363618 18.17849965
H 19.01110845 18.42859561 23.52697259
H 19.69462399 19.44950222 22.65193183
H 19.70054535 19.83533084 14.89349026
H 19.78616492 20.85595152 13.74807669
H 25.74545763 18.18739766 18.77902100
H 24.22324573 18.01459790 18.38931176
H 21.85506842 16.80764900 19.11431062
H 21.03827666 16.47396319 20.38766982
H 15.20782232 20.95645256 19.19970310
H 16.38755617 21.57641433 19.96583656
H 25.44821364 20.35450693 18.41974718
H 25.84956284 21.50519444 17.58153577
H 18.39063872 19.77847592 19.25576362
H 20.02030132 20.26370348 19.03665916
H 22.31626157 16.74526044 17.15736084
H 22.73896801 18.22358813 17.20184043
H 20.92634613 20.85130889 21.31069530
H 21.54431769 21.60191775 22.48682124
H 22.17350147 21.05556505 19.04925243
H 22.02547387 19.80856231 20.01234527
H 22.87128289 19.74715909 15.81827167
H 21.36222017 20.07202683 15.89470216
H 17.57700998 18.41386105 21.01341589
H 16.43768393 19.21645929 20.26391972
H 23.88371292 18.70141152 20.21810296
H 22.88541550 17.87761049 20.84591125
H 19.05707390 19.07712081 17.02584335
O 19.01166628 18.76677947 16.06736585
O 22.78979024 22.19783832 17.97452518
O 20.44526421 16.26127321 16.59683547
O 17.63583046 22.97307700 20.27574310
O 17.76959561 16.78676675 17.99123556
O 19.55304809 22.75691197 18.21320518
O 18.99694351 18.73125669 22.58434220
O 20.31242907 20.56835309 14.49278089
O 24.88834372 18.67214071 18.69491341
O 21.94707707 16.47593101 20.03415827
O 15.72365995 20.87240093 20.03969305
O 25.39731208 21.39227781 18.38386671
O 19.09580821 19.95621322 18.60230338
O 22.96122147 17.37361892 17.59770732
O 20.71502391 21.18072774 22.24545738
O 21.52741781 20.58158396 19.62170364
O 22.13214181 19.76892722 16.44052454
O 17.13308144 18.57012616 20.15100294
O 23.20975639 18.82678724 20.89722344
57
i = 0, time = 0.0, E = 0.0;
H 18.36821109 21.02161018 17.54864489
H 22.58991733 20.60081486 17.23848688
H 24.06179293 20.33691302 17.54730790
H 18.25088587 18.78859390 18.74465283
H 19.43648267 19.06196228 17.83914925
H 16.79455615 21.59212625 18.08227340
H 16.28020615 22.28167634 19.30221421
H 17.64307548 16.86659711 20.09772165
H 18.85490888 17.37597974 20.88890860
H 17.16582621 23.76926535 21.06870144
H 17.89591567 23.93004569 19.69043656
H 19.99299545 17.31421228 22.71029868
H 20.35506327 18.30875436 21.74097079
H 20.63627178 21.59215703 15.46415983
H 19.97053551 20.37267190 16.34813243
H 24.02241302 17.83539680 19.00359252
H 24.16389718 16.75146401 17.94416308
H 21.00871432 15.59621607 18.96499588
H 20.19880693 14.71908067 17.88511669
H 17.45227160 18.99237002 20.72586172
H 16.89366330 20.29162087 19.94549888
H 25.03622092 18.56159812 17.27468037
H 26.18117506 19.46755769 16.65071442
H 19.55985235 22.07695286 20.73552817
H 20.77116077 22.38147362 19.82891803
H 23.30226703 15.19620291 16.45375534
H 23.57073694 16.69187149 15.91256979
H 21.92251759 19.82309121 20.28280421
H 21.44054613 18.67773934 19.35192218
H 23.61498006 21.97432296 20.99701195
H 23.30127492 21.58106389 19.46709407
H 22.37039777 19.10280258 15.06276051
H 23.78750178 18.96657149 15.55223504
H 19.33240126 20.81393295 22.70034061
H 18.23681182 20.96186126 21.89028831
H 21.16944874 17.07409798 17.34075477
H 21.56663724 18.46032718 16.82562498
H 18.88307960 22.43644685 17.89601240
O 18.26196558 21.98330178 17.24952477
O 23.23601286 20.75032272 17.95777354
O 18.51280704 19.30889535 17.91849241
O 16.18351489 21.33584202 18.92216268
O 18.36848919 17.47877755 19.99803601
O 16.98349938 24.00483909 20.09775012
O 19.55991736 18.08225850 22.26897358
O 20.83157280 20.72187721 15.86780807
O 24.75499032 17.45457629 18.50669310
O 20.96825493 15.30951815 17.97675544
O 17.24979927 19.95287818 20.84573456
O 25.21985282 19.42943562 16.70866814
O 19.84303995 22.30554452 19.80994528
O 23.87452179 15.95766449 16.57635916
O 21.39813341 18.96480688 20.30271356
O 22.88467532 21.72524513 20.37605522
O 22.98166513 18.43008936 15.46531155
O 18.82441498 21.58180787 22.44317102
O 21.13609823 18.01393654 17.58814192
57
i = 0, time = 0.0, E = 0.0;
H 17.70332296 19.74253869 16.11653551
H 22.28532865 20.18783087 15.96114927
H 23.69900559 20.59209243 15.47561251
H 18.67728375 15.88155239 18.95188242
H 18.29942807 14.48303756 18.37032809
H 16.01221245 22.94098019 19.22259709
H 16.66701851 22.27354466 17.99207467
H 18.60039199 17.93265064 18.07957995
H 17.98296378 18.33972153 19.47521086
H 19.19403382 21.79044506 22.02533002
H 18.75037933 22.59148390 20.85719646
H 19.23592483 19.97946950 23.66407345
H 20.36605625 19.53789794 22.76061789
H 21.27427063 18.40324836 16.22192062
H 20.03446277 19.37539676 16.30165206
H 23.90116082 20.12273110 17.34779391
H 24.00601982 18.48978965 17.83611261
H 20.61294660 16.95505748 19.58178009
H 22.03200123 16.57853184 19.20035724
H 17.22478923 21.66926228 22.16049678
H 16.27830848 20.61286502 22.84789278
H 25.48177654 20.49162327 16.09693363
H 26.68318753 21.48734169 15.81212283
H 18.35020724 20.82313031 19.37604069
H 19.46871512 21.55408925 18.63072312
H 22.34216602 16.22574443 16.28466078
H 23.32952262 17.37846956 15.84636138
H 22.64148022 19.50622242 22.37898450
H 22.15529319 18.26760510 23.04868032
H 21.65872424 21.54843647 18.16101087
H 21.76948780 20.91111015 19.59805012
H 25.27305773 19.40265522 14.37082554
H 24.03048432 18.97640491 13.52829746
H 18.41658274 19.28737480 21.31082041
H 17.18069951 20.23696861 20.97242356
H 23.64775107 19.36268236 19.92980229
H 22.33746432 18.38450110 20.23147618
H 18.14856996 20.42792885 17.49018388
O 18.34472712 19.72679279 16.83356115
O 23.07715447 20.78543975 16.18472527
O 19.00034616 15.09622242 18.45251298
O 15.81767122 22.82399562 18.23773482
O 18.22442428 17.54151659 18.88433194
O 18.54809070 22.49770921 21.83230496
O 19.46801420 19.90127416 22.68024222
O 20.86119069 19.14599721 15.74862848
O 24.30031414 19.45122373 18.03573830
O 21.51428478 16.94573969 19.95156412
O 16.34874570 21.15202481 21.99367607
O 26.01524484 20.90931798 15.33173564
O 18.45718214 21.54373899 18.68385501
O 22.70108949 17.11934544 16.55935332
O 22.04675328 19.22349343 23.17539069
O 21.11698901 21.31162315 18.96500134
O 24.55574633 18.70230014 14.31580596
O 17.87237908 19.55856981 20.49562965
O 22.82372823 19.28567469 20.48593898
57
i = 0, time = 0.0, E = 0.0;
H 18.95489838 21.69612895 15.47023720
H 23.50038108 20.50031089 19.62887632
H 23.38533398 20.46135970 21.12811856
H 20.18498240 17.43640125 16.68543667
H 21.61670306 17.71559342 16.01022074
H 17.85210056 22.53843548 20.85906213
H 18.97505979 21.73188477 21.60033508
H 18.12818685 16.96715390 15.91251739
H 17.93300758 17.86764022 17.26068807
H 18.16969262 22.61111564 18.53919863
H 17.02486040 23.48214599 19.26205673
H 18.66930531 18.82029033 21.85140432
H 19.18720030 18.04752980 20.55139954
H 22.67397081 20.71843745 15.69223543
H 21.36262359 20.66975622 14.91642284
H 25.77990370 18.55223928 20.06301159
H 24.98813122 17.91373284 18.85885579
H 20.95237035 17.56544436 18.36115003
H 20.41423855 16.60782699 19.43108766
H 15.12174231 20.52924256 20.99175142
H 16.43414719 21.36992317 20.94649139
H 24.15732425 19.59793054 17.30070053
H 24.82306103 20.82982339 17.73216949
H 18.24244095 20.31704122 18.52877442
H 19.59665149 21.41508031 18.76271510
H 24.17720430 17.40527500 16.37697391
H 23.60903209 16.43160283 17.56521437
H 21.30906816 18.86114075 22.74675685
H 20.57307620 20.13430125 23.47696043
H 21.39656425 21.17868878 20.22663183
H 20.29975139 20.37097856 20.96257910
H 23.88052421 18.03466149 13.97218006
H 23.33447225 18.83339499 15.20493341
H 17.57444168 19.07592328 19.68534906
H 16.37347234 20.18537063 19.36491004
H 21.86615099 18.25119358 20.60938968
H 23.26743933 17.92832976 20.89319706
H 19.34340675 20.75287047 16.60938049
O 19.53891085 20.90801240 15.61121466
O 23.06385729 20.96280231 20.35887185
O 21.18075418 17.22992121 16.73753354
O 18.03481674 21.96321330 21.61871455
O 18.58997312 17.48681402 16.61756985
O 17.98641309 23.43568780 19.14530647
O 18.39902449 18.46559577 20.99538859
O 22.21771694 20.17973016 14.99773996
O 24.90927332 18.48724024 19.67943354
O 20.45363969 17.56190036 19.22879767
O 15.56827005 21.18516416 20.37591264
O 23.98472329 20.53854908 17.27296039
O 18.85901092 21.13400446 18.12203521
O 24.16714106 17.18973934 17.37039817
O 20.43142337 19.26670630 23.05437781
O 20.41139413 21.23344397 20.43307619
O 23.84839355 18.07537383 14.94840323
O 17.06847232 19.42624612 18.90186449
O 22.41990201 17.95066380 21.34525780
57
i = 0, time = 0.0, E = 0.0;
H 16.99024106 20.39023295 15.38755288
H 22.86390377 21.16763501 18.98310941
H 24.33589367 20.96791381 18.64403192
H 17.48824995 17.60892031 14.89926631
H 17.72427657 17.65473735 16.43561912
H 16.13735154 23.08408872 21.62933791
H 16.67326366 22.70625630 20.13655878
H 17.97382444 18.12545667 18.86616456
H 17.70459829 16.76857081 18.09031718
H 18.55850717 23.70819402 19.95814693
H 18.28567506 22.30096136 19.10012955
H 19.71756718 17.12628445 21.89463754
H 20.00478573 18.47295699 22.27282812
H 20.12342650 19.52797351 15.37898772
H 19.43832449 20.84296470 15.72521835
H 27.90373262 17.51241691 18.35649799
H 26.33487687 17.66555562 18.47296415
H 19.76180676 17.62984510 19.31398247
H 20.77027009 18.70221563 20.08102437
H 14.12804502 19.40218967 21.14060496
H 15.33675853 20.51568502 21.04183544
H 27.16334202 18.20434706 16.30182454
H 27.30943484 19.41689465 15.40303489
H 18.25252621 20.26412751 19.45727914
H 19.36666570 20.67237804 18.46191687
H 23.57564037 17.23406021 18.87713356
H 24.00381068 18.68760093 18.28844455
H 22.31733353 19.51202392 21.61115076
H 21.00842562 20.40267686 22.00564031
H 21.04462063 20.61347854 17.26568455
H 21.09263958 19.52796950 18.35510782
H 25.28185379 19.04339255 16.25485828
H 23.98792767 20.00603178 16.26222459
H 18.05032833 18.51374751 21.12990585
H 16.62449226 19.01634287 20.63262591
H 23.94546415 20.27724837 20.88018047
H 24.03395028 18.80588402 20.93818256
H 17.28524106 21.74223459 16.23383038
O 17.66052819 21.06573656 15.55677596
O 23.73061029 21.23908470 19.32280678
O 17.22074641 18.12032830 15.65266480
O 16.05929961 22.41988693 20.89041555
O 18.37727070 17.43868659 18.26510584
O 17.97483748 23.29549486 19.29294160
O 19.22313888 17.87605371 22.26855251
O 20.35676178 20.45214417 15.64591980
O 27.08846142 17.50347671 17.85599311
O 20.67807692 18.10486486 19.26881445
O 15.06126284 19.50985076 20.94476763
O 26.75476414 18.66005306 15.52578692
O 18.42367759 20.90864128 18.66411428
O 24.11556944 18.05181910 19.07408402
O 21.22945077 19.53979514 21.61256204
O 21.26208991 20.50733069 18.21879060
O 24.66307452 19.57675410 16.87808396
O 17.54087036 18.86965962 20.33819395
O 23.87226149 19.51498238 21.53038885
57
i = 0, time = 0.0, E = 0.0;
H 19.13875661 19.12811714 15.21722198
H 22.79180202 22.73309994 15.47689662
H 22.21822273 21.37849207 15.98670731
H 19.15245075 16.58735688 16.11992244
H 18.94046457 15.81781782 17.42420573
H 17.24689611 22.90365272 23.22553801
H 17.28684006 22.86035194 21.60793043
H 17.25559998 18.02057250 17.81274993
H 17.67954313 17.38695642 19.22267104
H 18.95042230 22.94902702 19.56466336
H 17.63944550 22.25897946 19.62430039
H 20.24771553 18.08217868 24.00008981
H 19.93427546 19.33071689 23.27052045
H 20.97298591 19.33894111 15.44300015
H 22.58746924 19.46910037 15.37246976
H 23.96837888 18.85936107 17.05583604
H 22.80522744 18.08549611 17.73721847
H 21.94288298 17.22506125 20.56879852
H 20.53584851 16.78237187 20.85728074
H 15.52656088 20.36647060 21.11442051
H 16.53279824 20.85241773 22.12682017
H 24.87514600 22.29729689 16.32263430
H 26.45580872 22.56537090 16.37924515
H 19.48738648 19.06831168 19.11967769
H 20.19467883 20.43816515 18.30785915
H 22.03831824 15.45616642 18.33965002
H 21.18828447 16.23349131 17.30868129
H 21.16798457 19.27495549 21.54614748
H 21.27956753 20.75938272 21.08619087
H 21.46183062 22.14618614 17.48206152
H 21.44660704 21.59388702 19.14268903
H 24.89544729 19.03751392 14.79264537
H 25.02888024 20.56269244 15.42682759
H 18.76784948 18.02491197 21.48267842
H 17.73840519 19.08192107 20.84959090
H 23.67269063 21.09293468 19.45348451
H 23.29690136 19.67309327 19.04976155
H 19.52879392 18.73423819 16.62981931
O 19.55041106 18.35603822 15.66436793
O 22.40132306 22.36299573 16.28015040
O 19.55943087 15.85544659 16.65645694
O 16.79736233 22.51315786 22.42375346
O 17.48676396 17.18266029 18.23848311
O 18.07662205 23.08518967 19.98274989
O 19.48961541 18.47329132 23.58929315
O 21.71630005 19.95956314 15.54666876
O 23.58432777 18.62662047 17.92006885
O 21.18256042 17.49474705 21.10945437
O 16.21585389 19.95542852 21.67599960
O 25.76504491 21.91682515 16.12303814
O 19.60855929 19.56649482 18.12029362
O 22.04061288 16.33788857 17.90759946
O 20.87274712 20.18406019 21.78124514
O 20.88717354 22.01888253 18.38661328
O 24.38500681 19.74042400 15.24354186
O 18.47330442 18.42801935 20.62853331
O 22.99307424 20.43085907 19.69345456
57
i = 0, time = 0.0, E = 0.0;
H 18.46484068 18.40882218 16.89858373
H 22.93095557 21.87437273 17.50700098
H 21.55990465 21.82328544 16.70742828
H 21.02183971 17.80800711 18.48591626
H 20.01861347 16.64667129 18.80552814
H 17.06646087 25.23127302 21.34102821
H 17.97768089 24.15925837 20.82304748
H 19.88918486 18.70127827 20.29076683
H 18.42900954 18.46447428 20.87101186
H 19.75887892 23.23031726 19.53263309
H 18.31232362 23.23815942 19.10044469
H 19.46258463 18.65062633 22.63987113
H 20.62543204 19.38766476 22.42515133
H 20.36424184 21.93685996 15.02435004
H 19.54437067 20.85753172 15.97696529
H 23.60828130 16.89866707 18.02106977
H 23.77979915 17.38311758 16.53175099
H 22.17467805 15.98342100 19.22184214
H 23.05524356 14.98432152 18.54083401
H 14.44332813 22.02740854 22.26773805
H 15.39225777 22.88511101 21.38112601
H 23.26113231 19.87961556 15.56416432
H 24.58325536 19.87961761 16.33943915
H 16.43880059 20.98225749 18.50237440
H 17.54665532 20.68150391 19.52479189
H 23.02173394 17.28029081 14.83033897
H 22.39160621 16.33075039 13.79564683
H 22.40863416 19.04292735 20.20886406
H 22.95301500 18.30205658 21.46278617
H 21.91917787 20.22665893 18.15537567
H 22.62091062 18.74846808 17.89097058
H 20.84112760 19.25419752 15.11408826
H 20.98210805 18.19672181 16.17894429
H 18.34398381 20.78251996 21.89874881
H 16.69900846 20.90768986 21.61837244
H 25.00839607 17.75708066 20.34997373
H 24.25710604 16.38386280 20.50854681
H 18.32808355 19.92868594 17.30392193
O 18.77397250 19.30372068 16.67391273
O 21.92186778 21.87863555 17.63818778
O 20.89588270 16.81713847 18.37920798
O 17.15060533 24.21858748 21.35888439
O 19.22529718 18.00580867 20.48557542
O 19.00218643 23.82161747 19.54278370
O 19.75408739 19.55526222 22.84356536
O 20.42353074 21.10678754 15.60336275
O 23.77692366 17.74552200 17.46800548
O 23.10991485 15.72421545 19.11755091
O 15.06647534 21.98128482 21.50672764
O 23.83486069 20.42743835 16.14060947
O 17.46010694 21.05873130 18.54443810
O 23.20711930 16.53133025 14.18852236
O 22.20419942 18.90435675 21.17576137
O 21.97766572 19.28176995 18.51708441
O 21.48462004 18.59624868 15.41825738
O 17.59294786 20.44829979 21.33949288
O 24.62671028 17.16446711 21.02400593
57
i = 0, time = 0.0, E = 0.0;
H 19.62133266 22.36040120 16.55709113
H 22.78474157 19.80577979 15.68764776
H 23.64231618 20.36186124 16.74311646
H 20.13997256 18.37699062 18.29629950
H 19.63476559 17.45459132 19.22424624
H 17.61059778 23.81770380 18.78552396
H 17.64579245 23.86146907 20.33003944
H 18.70882623 18.65304836 21.04708123
H 19.98669006 17.81784142 21.60793164
H 19.17513478 21.85473299 22.21096380
H 18.76300004 22.05803346 20.70346931
H 19.81779705 20.69625816 24.26449011
H 20.32759304 19.45604016 23.27587006
H 18.99405220 19.51061666 14.56681585
H 19.56630465 20.74196961 15.05605257
H 25.18844120 16.48963713 18.45983530
H 24.44259941 17.18647509 17.26901472
H 21.05567992 16.31118304 18.00642488
H 22.05088726 15.13101495 17.76473454
H 15.90404788 22.37489639 21.74394111
H 14.60620592 22.98980290 21.87245392
H 25.59014878 19.01816260 17.60131390
H 26.63906590 20.13855253 17.34116557
H 18.16822847 20.25421097 19.30290911
H 19.69052716 20.59567961 18.86750185
H 22.81597218 16.81457287 16.26911058
H 23.23581034 17.34001646 14.84361012
H 21.94996017 17.55036621 23.32202064
H 22.21408482 17.84961461 21.74398984
H 21.60243388 20.31401261 17.84049886
H 21.73870843 19.45725845 19.19590553
H 22.30419349 19.27084120 12.74358779
H 21.25365543 19.37573540 13.95512083
H 16.39068069 19.50408444 21.42965749
H 17.56447533 20.61848415 21.31230125
H 23.66498943 17.66584450 19.66688632
H 22.17964477 17.02020817 19.86367701
H 18.57403725 21.63783452 17.23857032
O 18.79959738 21.91361705 16.32272590
O 22.71309303 20.43314961 16.45567772
O 19.92885791 17.40589865 18.33936088
O 17.59594432 24.50467754 19.56243504
O 19.23623089 17.80592462 20.93275356
O 18.49129684 22.33399381 21.60305063
O 19.64406781 20.20993003 23.40074030
O 19.83484877 19.99298442 14.46287136
O 25.08319413 17.35039248 18.00382549
O 21.99206160 16.05524791 17.65496758
O 15.06821481 22.26475624 22.23751267
O 25.67417093 19.95483301 17.32227323
O 18.79916364 21.00616476 19.01743296
O 23.61336997 16.94587338 15.66315521
O 21.69442280 18.08506485 22.53872427
O 21.07668006 19.86567174 18.57532586
O 22.13298103 18.90076506 13.59301250
O 16.93200164 20.04141390 20.81849702
O 22.81595258 17.71568972 20.18630234
57
i = 0, time = 0.0, E = 0.0;
H 18.25973937 20.76521655 15.55452785
H 22.02549735 20.90929455 16.71449199
H 23.21099268 21.77761236 16.89474876
H 18.43679586 17.87096554 16.71831630
H 18.16460700 16.83084757 17.87908985
H 16.33585354 22.44935899 19.17957644
H 17.71626950 22.07885755 19.86322647
H 17.54569520 15.80145673 20.49741168
H 17.57543463 17.33649526 19.99401120
H 19.34007225 21.41970045 21.82002051
H 20.14613489 22.03509955 20.77872848
H 19.22049514 19.31409659 23.70136598
H 20.46647472 19.50342994 22.78775063
H 20.20704932 19.66986791 15.77801467
H 20.67399467 18.55458542 16.72756532
H 25.01769481 17.78144413 18.53177841
H 24.62150132 18.13834462 17.06003782
H 20.18657039 17.40654146 18.63732004
H 20.27503826 17.53504977 20.26636177
H 15.53532268 21.12570623 22.49642699
H 16.15829766 21.17295219 21.08715407
H 25.14069935 20.01183029 17.58472903
H 25.77683047 21.36639682 17.92246207
H 18.69256617 19.82541082 19.36051476
H 19.87048555 20.84223843 18.80465757
H 25.43375080 19.17747080 15.18569933
H 24.23289755 18.22833780 14.89506431
H 22.99273163 18.97112535 22.75446090
H 22.22905537 19.51907285 21.41530338
H 21.49660405 22.07233026 18.48384084
H 21.87075507 20.90769325 19.37998018
H 22.45355833 17.27890277 13.67623281
H 22.15052455 18.39556284 14.87376262
H 18.54131847 19.04351676 21.58372516
H 17.12536634 19.27502629 21.12119987
H 23.54434285 19.18037021 19.04302503
H 22.26294649 18.46203832 19.56595213
H 18.58859109 20.17279616 17.08672041
O 18.64529160 20.03083535 16.07253337
O 22.21077604 21.85355737 16.73914826
O 18.89288382 17.24644932 17.31130245
O 16.80968236 22.42496515 20.03713374
O 17.44641465 16.38021091 19.73367667
O 19.20355610 22.08966361 21.13987030
O 19.45275900 19.71703809 22.84424924
O 21.08474657 19.19430120 16.08508607
O 24.67762593 18.51667758 18.03417244
O 20.77601867 17.51522943 19.45334653
O 15.92307845 20.58491330 21.81435862
O 25.11947774 21.05214190 17.34118394
O 18.95262545 20.43294658 18.58275810
O 25.16829998 18.25701053 15.36550704
O 22.16502147 19.32101816 22.40208083
O 21.29926314 21.80530234 19.43232828
O 22.76126245 18.08981317 14.04933918
O 17.96612411 18.88485793 20.72894244
O 22.67966235 19.35942829 19.54288199
57
i = 0, time = 0.0, E = 0.0;
H 18.16141208 21.16264321 15.72266612
H 23.47194964 19.74563807 17.74055621
H 22.63506305 20.82818732 16.85581345
H 21.11572581 18.61385162 19.42796304
H 19.84368904 18.15248963 18.66367648
H 15.35672281 23.59757665 22.42264191
H 15.60636692 22.91457031 21.14368771
H 18.11897634 19.00732338 19.35035907
H 18.12802028 19.57542659 17.92047016
H 16.28592565 24.29183702 19.02174904
H 17.42651067 23.12754994 19.53500676
H 18.70839513 17.02869993 19.68515393
H 19.79500762 17.16996088 20.84342150
H 20.91180404 20.94988464 15.47090377
H 22.14813096 21.76106695 14.93414375
H 26.89784269 19.51049909 17.85427362
H 25.45569065 20.04348380 17.56224488
H 20.92361889 16.31649246 17.49118640
H 21.73498197 16.53081692 16.20859410
H 15.26105221 20.34378757 24.35394822
H 15.19914823 21.20329016 23.03997227
H 26.27341678 18.70473190 14.00787437
H 26.29620909 19.20693788 15.58078518
H 18.13905756 21.08341639 19.82055337
H 19.59395381 21.42997910 19.37202232
H 22.40777840 17.58781743 18.17464449
H 23.34574617 17.83438568 16.88189579
H 22.53774543 18.27900976 21.69267573
H 21.59943424 19.28229777 22.46123003
H 22.16678570 20.55630942 18.98997356
H 21.95436227 20.28094351 20.49832839
H 22.53253393 19.00192250 14.78570053
H 24.07901411 18.44954271 14.85539385
H 17.77103715 19.03669038 21.51466587
H 16.79241779 20.07792125 22.06260815
H 23.38333734 16.63688093 20.54607634
H 21.94892318 16.84048449 20.18225731
H 18.86880425 21.47237961 17.14619483
O 18.99289565 21.12639351 16.20498993
O 23.14640743 20.67889289 17.68773591
O 20.72326520 17.84423036 18.88879694
O 15.11233229 22.81876759 21.97225139
O 18.29266747 18.78269336 18.41421574
O 16.65645959 23.73013407 19.73811565
O 18.80438590 17.15858327 20.65557035
O 21.88332355 20.85068419 15.13742121
O 26.35351573 20.02357073 17.14543498
O 21.00821298 15.99649693 16.57702168
O 15.73932882 20.58286303 23.52130222
O 25.72337823 18.77343986 14.82401883
O 18.60396180 21.62728666 19.17688632
O 23.31244293 17.89794045 17.89697617
O 22.46304430 19.25396018 21.99239614
O 21.45043115 20.31728705 19.66186328
O 23.12551024 18.26405377 15.11260518
O 17.33571071 19.87049656 21.27536862
O 22.54799416 16.81649438 20.94562482
57
i = 0, time = 0.0, E = 0.0;
H 17.77470335 18.31757915 16.58417154
H 25.01304959 20.83140721 16.55008477
H 24.91788332 22.36459805 16.79794898
H 19.19912132 16.51237859 17.60674208
H 18.72656068 15.20879414 18.26386203
H 16.00846290 21.86949938 18.09007368
H 16.94158756 22.26167697 19.35684001
H 17.31929422 15.63514818 21.53863748
H 17.10904193 17.18840562 21.15280748
H 18.74568398 22.88562205 19.65259974
H 18.28310803 24.11428708 20.47300757
H 18.85866648 18.79206285 23.36078122
H 19.95467003 19.39966266 22.48523984
H 19.96691193 22.19332368 17.71460262
H 19.86063634 22.93493432 16.20724295
H 25.28109861 16.75879273 17.76716888
H 23.94121890 17.37554007 17.25757573
H 20.19009880 16.74456781 19.44631457
H 19.68669323 17.64194153 20.78330284
H 15.94070954 19.11908819 21.65659150
H 16.11017271 19.73803554 20.30649090
H 25.29383529 18.63281867 15.91513762
H 25.27146191 19.55717079 14.51387251
H 19.85689467 21.01080829 19.16878757
H 21.42281841 21.78355897 19.30928681
H 21.27524039 17.58761892 17.33480707
H 22.18887155 18.84267863 16.66276115
H 20.96392998 21.81200047 21.47003836
H 21.85872608 20.57881007 21.45461999
H 23.80588788 21.86511287 18.80447032
H 22.98839232 20.77531899 19.56449627
H 22.89286771 20.82759014 15.57342496
H 21.33344852 20.81571129 15.88346221
H 18.44126857 19.44754384 19.90024163
H 17.67399973 20.36445762 18.92455197
H 22.70473658 18.82222191 18.91393820
H 21.88402388 18.60279670 20.10616231
H 18.53556141 18.74323198 17.76981297
O 18.66399768 18.16961463 16.99425963
O 24.90377559 21.53573296 17.28248239
O 19.58622319 15.64237049 17.91992594
O 16.48747259 21.50825775 18.90007384
O 17.57068016 16.34670808 20.88981865
O 18.06305353 23.57794229 19.67125889
O 19.27377147 18.70100778 22.49205752
O 19.91540654 21.98708585 16.69565737
O 24.89317894 17.37607235 17.16683055
O 20.50174903 17.38144696 20.14189508
O 16.10886345 18.82461891 20.76127505
O 25.54150332 19.54077684 15.45823387
O 20.37998140 21.86705942 19.36892342
O 22.18135249 18.02849125 17.32105433
O 21.12658442 20.96197334 21.93356690
O 23.04337153 21.75631546 19.46091411
O 22.08975688 20.26830802 15.50065372
O 18.54249433 19.78050154 18.99171011
O 22.69535089 19.13981923 19.84646129
57
i = 0, time = 0.0, E = 0.0;
H 18.51074130 19.03338698 17.39421629
H 23.35014976 20.66599214 18.29651052
H 24.40260931 21.21090679 17.28629069
H 21.34446504 16.48858791 19.99664710
H 19.79852726 16.35900304 20.50579308
H 17.25619620 23.65849416 18.94188091
H 17.24709313 23.51751647 20.45047090
H 17.47032896 15.71505874 19.97883762
H 17.61449222 17.25764310 19.99415658
H 18.44896569 22.49994985 16.70320996
H 18.59635530 21.78500141 18.05673082
H 19.68275681 19.80080259 22.01301516
H 19.05633666 21.10205121 22.45752103
H 20.92619871 20.06449059 16.86734385
H 22.42031241 20.67773950 16.59979294
H 23.83840209 18.56655976 18.71623690
H 24.42104463 17.18580846 18.22362804
H 22.12473662 16.27758011 18.16402066
H 22.69053094 14.97528217 18.90114079
H 15.53389604 22.06980784 19.66866499
H 16.17554659 21.33266443 18.51448757
H 25.51564620 19.36460031 17.50387986
H 26.92366673 20.25472214 17.12283831
H 19.53343812 21.02300128 20.37217366
H 20.45499494 21.87578653 19.17096533
H 20.39516376 16.90334165 17.08823152
H 21.49880368 16.85342760 15.86360222
H 20.57223375 18.04214206 21.49711163
H 21.57224853 18.67727295 22.65527534
H 20.95019640 23.48399116 17.96847388
H 22.27699670 22.66012195 18.29390452
H 22.02254839 19.05852011 15.66982993
H 23.29728819 18.06583186 15.78818326
H 17.67167546 19.55114952 20.83299549
H 16.44275451 19.35164431 20.03165508
H 21.71557308 20.01780054 19.16997409
H 22.16456096 19.17424777 20.33464106
H 19.50559033 19.79420061 18.25379293
O 19.45387013 19.08004710 17.63260789
O 23.48728632 21.42021687 17.67057516
O 20.75982539 16.62576415 20.83221727
O 16.67747863 23.80012931 19.72055704
O 18.10392331 16.40254506 19.86158374
O 18.14053504 22.57717676 17.62543656
O 18.92655313 20.48492330 21.71638087
O 21.53916532 20.54622278 16.15934449
O 24.55046555 18.16956520 18.07448420
O 22.54345297 15.93580904 19.01568309
O 15.63037159 21.14131173 19.31326257
O 25.96630528 20.22247859 17.18850826
O 19.82077758 21.09407447 19.32957944
O 21.06358780 16.33890663 16.68552867
O 20.98166378 18.95647203 21.93846880
O 21.45559431 23.13138282 18.70483784
O 22.47983872 18.24309927 15.26789108
O 17.12499313 18.85463989 20.48365481
O 22.53515015 19.59367418 19.51179832
57
i = 0, time = 0.0, E = 0.0;
H 18.08738074 18.83865446 16.11766050
H 24.11506462 22.43249823 17.96929287
H 24.38339311 21.34707661 16.87044781
H 19.19507951 17.43542476 18.00866474
H 18.66599627 16.16049686 18.78378984
H 14.87147534 23.64708642 20.34054560
H 16.16302075 23.13796429 19.58130496
H 16.50917439 16.19873863 20.33496899
H 17.54302988 17.36609203 20.09779417
H 18.49324707 23.53120461 19.33591756
H 18.24904779 22.26891666 18.52634844
H 20.00785841 18.84260169 23.67636816
H 20.49627874 20.07234219 22.92688800
H 19.97981607 19.89678220 15.00256189
H 20.07046788 21.41249319 15.25572339
H 26.13667405 17.96745616 18.35154737
H 24.65954469 18.21354355 17.79436748
H 21.09788326 16.59960255 18.97308819
H 22.36655172 15.75709440 18.83964116
H 16.02136100 21.46241878 20.67659534
H 15.52806119 20.67081538 21.80565808
H 26.57435076 20.67152161 16.01719272
H 25.87068485 19.80695080 17.11133962
H 18.53123208 20.42329191 19.03807565
H 19.86640055 20.70367319 18.31808964
H 22.71486503 17.23298934 17.73686601
H 23.13453347 17.58347219 16.22916588
H 22.65920282 21.46796722 23.39101007
H 22.69594246 20.32095152 22.18568309
H 22.05386669 21.07446430 18.28593491
H 21.70152499 20.06577988 19.43385673
H 23.18885752 18.81200536 14.04370397
H 22.53448235 19.70271670 15.26591921
H 18.65853348 19.04823207 21.38806686
H 17.24836675 19.57011196 20.76452930
H 22.36236978 18.17078810 20.31318959
H 21.51969381 18.90937409 21.44540259