84
i = 0, time = 0.0, E = 0.0;
H 0.25396872 -0.69994052 3.12359298
H 0.96709431 -0.65908158 4.58567823
H 1.18402518 -1.12685645 6.58229440
H -2.18499307 -2.62558626 1.69146976
H 0.49582968 3.48118886 3.51394346
H -2.65706726 -2.95336276 4.14123223
H 1.97257892 0.32502998 6.15029969
H 2.78709874 1.09656332 0.49164804
H 1.91444307 4.68868463 5.66815670
H -1.49982578 1.08690346 6.76601346
H -1.25076980 -3.14964480 0.57005317
H -2.18938775 -1.49719232 3.85437452
H 2.15624356 0.45535882 2.75849013
H -1.43956713 4.74012868 0.73692828
H 0.60259197 4.06376119 2.05349993
H 2.87200738 -0.17597324 -0.41614876
H 2.18404236 3.05422731 -1.78660402
H -0.74586439 5.80228101 2.91186648
H -2.94285361 -1.49238578 -0.66755715
H 0.74021156 3.80926719 5.49847930
H -0.11619508 0.84579920 6.20515270
H -0.18917221 5.82177200 0.44324472
H -1.22685828 7.08249739 3.58474346
H -4.69127940 -0.46569301 -0.63820746
H 1.78340207 4.30800628 -1.06459029
H 1.85291635 1.94421353 2.35256274
H -1.19484744 2.67813077 5.13836928
H 0.49556977 -3.97886961 1.57983241
H 3.61192339 4.35651430 2.38220873
H -2.41450965 -0.81983024 -1.91240659
H -5.84056919 0.66499890 -0.61428046
H 0.50483944 -4.87765878 0.34088058
H -2.09664988 0.32301377 3.19200164
H 3.30443435 1.05880688 4.57897530
H -0.23487012 -0.99479223 -2.63544746
H 2.42580442 2.18550535 5.28308402
H -0.66726881 0.34862879 -2.24106801
H 2.26258508 -2.42713696 -0.44796909
H 1.28965888 6.65613722 4.15803679
H -1.84756541 0.44409221 4.62204933
H -1.53377719 4.11516906 5.06964745
H -4.13741739 0.97376466 0.92552828
H -0.08340665 2.21127546 -1.01807978
H 3.82362708 6.04000491 -0.76250491
H 3.43233049 5.52257981 0.63382895
H 2.55770587 5.81635517 3.78783297
H 0.79810169 -2.34066831 -0.43724656
H 0.87012281 1.03902061 -0.70288462
H 4.57273405 5.52665877 2.65736427
H -1.35259151 -0.91729633 1.18483452
H -0.20316417 -3.46408698 3.46420440
H -2.59820658 1.02809169 1.13769988
H 1.01464191 -2.64998277 3.45750498
H -3.16977005 4.58100241 1.87313061
H -0.51092085 0.53601925 1.10642593
H -3.18388186 3.15079509 1.34281976
O -1.99075200 -2.50873073 0.73958311
O -1.97483821 -2.46910091 3.63032463
O 1.10942577 -0.20504347 6.24730699
O 1.05093475 -0.96340511 3.60583833
O 1.65887692 3.72058952 5.80357795
O 1.11733583 3.58060180 2.75343309
O -0.71242903 5.32478806 1.14686330
O 2.58122885 0.77445354 -0.41503516
O 2.58414518 1.22721721 2.28468329
O -0.88238889 1.49193788 6.14763683
O -0.61381750 6.32996341 3.78497665
O 1.41005264 3.67709757 -1.73232694
O -3.27148087 -1.17033351 -1.54221025
O -2.46523421 -0.06591824 4.01179968
O 3.00234419 1.35874684 5.48819279
O 0.31900481 -3.96609390 0.58307407
O -1.03965496 -0.45838077 -2.64383349
O -5.38375878 0.00755223 -0.09098205
O -1.18543050 3.43647381 4.50262330
O 3.37993282 5.25808159 -0.35678933
O -0.11989433 1.26155782 -0.73700590
O 3.68876295 5.35667632 2.31278617
O 2.22267796 6.45182098 4.47515968
O -3.41382807 1.46816636 1.45293241
O 1.58130513 -1.80665522 -0.76155470
O -0.92956212 -0.12759533 1.69553334
O 0.77348362 -3.62765170 3.28019129
O -3.10557734 4.10423472 1.06230500
84
i = 0, time = 0.0, E = 0.0;
H 3.45497746 -6.76808007 4.19787543
H 3.14389414 -8.03039008 3.58952573
H -0.41249382 -3.91325848 6.72458205
H 1.21781679 -5.26892595 -1.51714998
H 4.74022847 -0.31090589 3.75307833
H 2.31859000 -7.38959778 0.00005307
H 1.00355000 -3.93665177 6.35154871
H 5.98915619 -1.84135629 -0.25469625
H 4.96812610 -2.60074580 4.91792405
H -0.88788102 -2.24118782 5.28928729
H 0.42333615 -4.05601257 -2.01163332
H 1.46247178 -8.21248489 0.90694901
H 3.13256843 -3.48083758 2.25659473
H 2.24839142 0.65772665 0.74604952
H 3.54404168 -1.04433767 4.44038703
H 6.40617147 -2.09254016 -1.75538153
H 7.74654806 -3.36271344 3.34103977
H 5.11136063 -2.29107696 1.54891899
H -0.62513165 -5.62588780 -0.35107169
H 5.21071742 -4.18046425 4.57110075
H -0.63547200 -1.55929406 3.93901361
H 2.32863780 1.73492482 1.82048663
H 5.72404574 -0.72699073 1.78287443
H 0.33917629 -6.47855270 3.04481658
H 6.92346558 -2.58813178 2.19592116
H 4.21664183 -4.42161827 2.29546778
H -1.13954173 -4.45297814 5.00800542
H 3.99896001 -2.63507349 -1.04382097
H 5.79043197 1.72243876 2.13656542
H -1.95991800 -5.83083302 0.64954719
H -0.22739712 -5.61721664 1.82883077
H 3.36307663 -3.50385809 0.10962968
H -0.30666345 -9.04296487 2.23063469
H 3.06201239 -4.24089044 7.69454063
H -0.92037121 -3.23912100 1.83092555
H 3.59834777 -3.77361098 6.27300976
H -0.57481950 -1.75675649 1.23369672
H 3.61440388 -6.45199674 -1.49391159
H 1.04950896 -0.82582636 5.35178229
H -0.62795150 -7.81333676 1.24334739
H -1.26160036 -5.30628709 3.79783133
H -4.03852608 -5.46747506 0.58745019
H 2.00746823 -1.87861366 -0.15671730
H 6.36129246 -4.87085095 2.94486010
H 5.43774183 -6.20441890 2.68710562
H 2.07152941 -1.11431460 6.44038821
H 3.17068546 -4.88959506 -1.18989160
H 1.56798436 -1.28111279 1.16445329
H 4.45123689 1.21512771 1.64288400
H 1.96312154 -2.97769892 4.27551908
H 5.20345733 -8.48784120 2.03060526
H -3.39185334 -4.51636522 1.74038047
H 3.93084858 -7.69586557 1.56178699
H -2.72219252 -2.60503735 2.67282703
H 1.41861184 -4.23361841 3.54674447
H -2.85453976 -3.81849582 3.70636417
O 0.29128134 -4.99339413 -1.79718609
O 2.41563123 -7.99996481 0.78860980
O 0.12405739 -3.81795538 5.95995385
O 2.77947156 -7.46474774 4.28346083
O 5.13690127 -3.50306425 5.30424997
O 4.52844556 -1.09177821 4.26145665
O 2.89541036 1.29433297 1.19241301
O 5.64174552 -2.09997250 -1.17576963
O 3.93347329 -3.64318863 1.68114123
O -0.63448471 -1.38942715 4.92869522
O 5.88435642 -1.64869873 1.38657298
O 7.47977516 -3.42462265 2.40447404
O -1.10603914 -6.21160206 0.28540003
O 0.10625974 -8.24502189 1.77798678
O 2.76741851 -3.97623939 6.82224513
O 3.13975073 -3.13051324 -0.76555078
O -0.79559446 -2.28286537 2.04144536
O 0.19124648 -5.55614060 2.74537700
O -1.80649875 -4.80080314 4.41065699
O 5.50221503 -5.28545179 3.12615015
O 1.49025383 -1.10242612 0.18595274
O 5.31268690 0.89157007 2.11423224
O 1.99329326 -0.61791744 5.60130287
O -3.27894752 -5.40835387 1.17959510
O 2.97941374 -5.85302777 -1.05304286
O 1.83713276 -3.34653011 3.39188530
O 4.70105807 -7.64714411 2.22925871
O -3.32768128 -3.36336358 2.90396896
84
i = 0, time = 0.0, E = 0.0;
H -2.49925076 -0.62838181 1.79982472
H -2.85504761 -1.74837944 0.71738047
H -1.84252631 0.83653223 3.31601791
H 0.22699442 -5.17741025 -3.26965566
H 1.46340743 1.58126508 7.42135130
H -2.59659110 -3.73378188 -1.15939890
H -3.26289626 1.06349942 3.07058837
H 2.56906134 -3.54849697 0.23214043
H -0.08008933 1.20249559 5.18403750
H -1.44670472 3.79172044 0.67340581
H -0.47886537 -4.79094560 -1.96706290
H -2.87817541 -5.21674524 -0.98200670
H -0.90129834 -1.95904808 1.64921496
H 2.71026404 -0.49569830 1.06546783
H 2.20786315 1.67464842 6.04880931
H 1.71861160 -2.85343008 1.30951148
H 4.55510365 -4.39825346 2.27724175
H 3.00364060 1.94063699 3.96483061
H 3.75735449 -1.22592893 -1.17510178
H -0.11995379 -0.28365125 4.76338040
H -2.00667790 2.35041932 0.57341059
H 2.60858859 0.85686730 1.98901611
H 3.84396367 0.70588777 4.57192332
H 0.79311655 -2.35848400 -2.62687880
H 3.83513934 -3.13106998 1.57689488
H 0.20422646 -2.19258851 2.72482192
H -2.61244974 3.07177940 -2.90394756
H -0.08737169 -4.21531512 1.51556482
H 3.96051019 -0.65812672 3.03393987
H 3.49753845 0.16721971 -1.57136184
H 1.66817366 -1.17582127 -2.60029169
H -0.90676855 -5.21684809 0.85384132
H -3.98797781 -1.95895976 -1.77343408
H -3.13964676 -1.17684565 4.12409144
H 3.95982703 1.41489364 0.20255563
H -4.63958025 -0.98874015 4.30250855
H 3.39470999 2.53433455 -0.76626546
H 2.08788632 -5.47074023 -1.10824813
H 0.93559936 4.35688566 1.57100113
H -2.68536880 -1.34591767 -2.02126281
H -1.78335527 2.79949361 -1.56128217
H -1.14520264 -0.73320650 -3.40515862
H 1.09253897 2.40729773 2.28552961
H 2.19990898 -1.66409148 4.06668601
H 1.38606438 -2.89617711 4.57229771
H 0.71412440 3.25808037 0.44641415
H 1.49467484 -5.53881448 0.39164974
H 0.74457255 1.32924550 3.41009403
H 4.34010178 -2.10038601 3.43882252
H 0.47303745 -0.87461493 0.44429943
H 3.95153176 -6.70234014 2.40168891
H -1.99459278 0.51440944 -2.96708518
H 3.51058632 -6.01961663 1.03835252
H 0.50059541 1.24653763 -0.65173471
H 0.11834021 -0.75811591 -1.07617422
H 0.83986590 2.38630779 -1.70510540
O 0.43310962 -4.84719545 -2.37559405
O -2.11012806 -4.58677837 -0.91622116
O -2.48918947 0.86008136 2.49115966
O -2.42304988 -1.65993566 1.56457548
O -0.48825761 0.59558810 4.48956387
O 1.29018137 1.49461600 6.44383446
O 3.23892245 0.22772321 1.51559831
O 2.53808034 -2.67616031 0.74867790
O -0.02704234 -2.38617108 1.74828489
O -2.08458036 3.22775966 0.19088115
O 3.45552821 1.60606451 4.77420338
O 4.57802649 -3.41433208 2.20323034
O 3.38136275 -0.71730814 -1.92034949
O -3.06931925 -2.04187357 -1.43647047
O -3.84446048 -0.88548686 4.79980093
O -0.10649309 -5.21593297 1.46628453
O 4.12322782 1.89855341 -0.66317311
O 0.70308158 -1.39604162 -2.68191127
O -1.83532450 2.57212480 -2.53498415
O 1.23975694 -1.98880354 4.22490702
O 1.47898094 1.63544914 2.79296226
O 3.91260645 -1.26204035 3.84885362
O 0.34632837 3.65681019 1.26486178
O -2.08775385 -0.46673724 -3.30219851
O 2.32656999 -5.39517301 -0.15713206
O -0.00792490 -0.26628296 -0.19669900
O 4.25739156 -6.07031819 1.70780442
O 0.94515726 2.15509744 -0.76848534
84
i = 0, time = 0.0, E = 0.0;
H 1.21446314 -2.52887939 3.88961681
H 1.71807546 -1.99598689 2.53664841
H -0.11820697 -1.75668153 5.63927108
H 0.54578490 -5.94790286 -0.80847477
H 3.42748403 -0.50609930 5.34639447
H -2.49394974 -6.83010967 2.99213075
H 0.38210343 -3.00319254 6.39591572
H 3.30126608 -0.89041061 0.93587282
H 2.13784552 -1.78965757 7.15386975
H -1.13651444 -2.24584981 8.26755779
H 1.34200636 -5.24522437 0.33531885
H -1.93765972 -5.35463912 2.67844648
H 1.73650677 -4.44055530 2.39742462
H 1.92176357 1.45179637 1.77555362
H 1.93063761 -0.44647461 5.36556213
H 3.41160783 -2.21306079 0.05113812
H 5.08950813 -1.43857636 3.39292559
H 4.43612299 1.32679216 2.16296298
H 1.21008040 0.96483171 -0.23285328
H 2.67542391 -3.14415095 7.61967414
H 0.25075340 -1.98016815 8.95821939
H 2.22964353 0.53971111 3.06370639
H 5.71179505 0.59405445 1.63446842
H 0.21505583 -3.54901162 -0.58635618
H 5.39713072 -1.59451475 1.89426449
H 1.62957094 -5.92779764 2.43384146
H -1.64745381 -2.91840758 6.34935336
H 3.41871011 -4.24651055 -0.75597741
H 5.99272545 0.22876048 5.09871822
H 0.04944087 1.95527567 -0.24786841
H 0.27030503 -1.97717945 -0.37686255
H 4.56377822 -4.19923462 0.42034618
H -1.07022954 -3.35819279 3.43262520
H 0.97526463 -7.80569697 2.22356558
H -1.77150019 1.77979639 -1.28596992
H -0.17896842 -6.79531627 3.02912842
H -1.20271027 3.04710376 -1.96282422
H 3.78107053 -0.60099285 -1.03017287
H -0.52276150 -0.13909452 7.74801127
H -0.86645132 -3.35013656 1.94420322
H -3.01531031 -2.61525467 7.15603700
H -1.78086072 -1.98618432 0.21421128
H 0.03370181 0.43709499 5.87165502
H 4.95226762 -3.53692129 2.49642996
H 4.09850486 -4.87377816 2.32443728
H -1.68573945 0.64400571 7.05768960
H 4.46036443 -0.92196542 -2.38183742
H -0.02953447 0.50280498 4.36343948
H 5.27206586 0.66468743 3.77891348
H -1.74724951 0.17419164 2.27793630
H 5.73263026 -0.28777700 -0.56702926
H -2.98804553 -2.04614878 1.14274188
H 7.16985214 -0.05832508 0.15866322
H -4.12022243 0.91603071 -1.03166478
H -0.76082214 1.35220608 1.86471467
H -3.15051629 -0.20349142 -0.85415055
O 1.10225791 -5.19061829 -0.62727533
O -1.70547471 -6.26593527 3.04305742
O -0.25641014 -2.72688554 5.67187840
O 0.89424798 -2.41879032 2.99435349
O 1.82917052 -2.67441930 7.63632047
O 2.68243530 -1.03829081 5.66429690
O 2.62471014 0.96885621 2.26799063
O 2.80550765 -1.42810284 0.26276114
O 2.25201420 -5.21520187 2.03000154
O -0.60858510 -1.56885566 8.79611539
O 5.39916911 1.18301770 2.33650319
O 4.70530601 -1.76495462 2.55591995
O 0.64058240 1.46930291 0.43482126
O -1.57915701 -3.63502483 2.62582834
O 0.83606043 -7.12612319 2.93168283
O 4.18241426 -3.74512852 -0.41950899
O -0.93425507 2.25642715 -1.44014032
O -0.29518751 -2.76844571 -0.16480922
O -2.23359364 -3.20339451 7.12242767
O 5.01011382 -4.45222214 2.12310558
O 0.52306180 0.08993110 5.06567881
O 5.14137067 0.01625008 4.59645260
O -0.71050175 0.72527938 7.18944059
O -2.48536621 -1.41069043 0.56716178
O 4.56261897 -0.31155053 -1.59500319
O -1.43131653 1.06934459 2.54593349
O 6.22333314 -0.31616906 0.35065863
O -3.46562718 0.45540265 -1.52908614
84
i = 0, time = 0.0, E = 0.0;
H -1.01830669 -2.08135747 5.14487213
H -0.00068677 -3.40740944 5.01975152
H -1.16030276 -0.15735970 6.16221892
H -3.13007024 -4.04931979 2.74201305
H 1.88333525 2.91221350 1.31685955
H -3.68557654 -1.66941914 8.11756657
H -2.53674178 -1.06025746 6.30454686
H -1.49698403 0.83521319 1.40927362
H 1.34802147 1.51868754 2.81890152
H -0.46129295 3.76609593 3.31704219
H -2.15102289 -3.45225563 3.88088138
H -4.35289292 -2.30281586 6.76117869
H 0.00823141 -2.15952178 2.96179628
H 0.77591873 2.36983030 -1.77385419
H 0.38839021 3.17252109 0.92842855
H -0.30134062 -0.27975948 1.28492835
H 0.84595490 0.81666600 -0.37174933
H -2.78641817 1.19650098 4.34412960
H -3.02169603 4.71838809 -0.55180065
H 1.02374456 0.72544117 4.05199435
H -1.97225871 3.74458269 3.43082855
H 0.75386060 3.32564934 -2.86156154
H -2.62669665 2.49740572 5.28585670
H -5.46846113 -0.35935043 2.37382565
H 2.27615369 0.24740807 -0.47593201
H 0.82033218 -0.77973504 2.66863856
H -4.55937755 0.85003889 5.73492604
H -3.45621482 -5.47710056 0.80633073
H 2.88960996 1.97505974 -1.71139582
H -2.43412050 3.26275044 -0.50020291
H -5.51859308 0.85653124 1.34408511
H -4.53443608 -4.31329045 1.07180103
H -4.43216008 -3.62883815 4.76876823
H -0.66766454 1.94336034 5.15259311
H -1.36875941 1.53464551 -0.40461495
H 0.51633421 1.90635341 6.15551712
H -1.51644586 1.88161865 -1.84905664
H 3.61770788 -2.72397047 2.12235647
H -3.37476473 0.34682459 2.51400438
H -5.89892393 -3.89676816 5.22078692
H -5.23646081 -0.27160492 6.47859273
H -6.75736739 1.54907193 3.43206760
H -3.27364818 3.85197331 1.34710548
H 3.91706763 2.48064668 2.10841375
H 3.43953834 1.27698962 1.13537833
H -3.22543339 2.00340404 2.27022674
H 2.00797879 -2.51276177 1.80348494
H -4.39282314 3.86326145 2.54934101
H 4.08836304 2.55907134 -1.15759614
H -6.13001021 3.52457264 3.87689156
H 4.31635692 -0.49581470 -0.47540665
H -6.53472534 1.72505225 4.94805486
H 3.42427282 -1.40944228 0.51167035
H -3.85075545 -1.84084852 3.49140842
H -5.84887383 5.03969550 4.02706231
H -4.67632445 -0.66797059 4.38432906
O -3.14733249 -3.48271490 3.62427687
O -4.19949052 -1.48243954 7.28548435
O -1.51478692 -1.07686672 6.02282750
O -0.68316849 -2.88720220 4.54084280
O 1.45763021 0.59064178 3.16595565
O 1.00976133 3.26787508 1.67843017
O 0.11592481 2.97403392 -2.16857473
O -0.63671122 0.59858476 0.94527192
O 0.54709170 -1.64055110 2.22240621
O -1.15677583 3.78176398 4.02569727
O -2.74998685 1.47022483 5.27773899
O 1.69770407 0.89287529 -0.88251132
O -2.41276714 4.16458277 -0.01817135
O -5.04341683 -3.54492894 5.52176852
O 0.07163542 1.36592811 5.48313778
O -3.80339428 -4.85776052 1.49299798
O -2.06908146 1.91729797 -1.02066238
O -6.09767826 0.24421143 1.88562310
O -5.40295028 0.29889693 5.71015088
O 3.63689651 2.24605823 1.19739653
O -3.44452640 3.59369901 2.32457320
O 3.72551402 2.31978880 -2.02076886
O -2.76418759 1.11078885 2.41211394
O -6.89070276 2.21887927 4.14739270
O 2.90504072 -2.98547256 1.47112422
O -5.58467174 4.27700958 3.50426841
O 3.71874469 -0.45617253 0.31501067
O -4.30593704 -0.92364218 3.43465682
84
i = 0, time = 0.0, E = 0.0;
H 1.69723991 -1.77359307 4.20124296
H 0.86960736 -2.09769374 2.87983427
H 2.46711304 -0.45308696 7.42243402
H 3.05430947 -5.27645540 4.13795703
H 1.33019058 2.56822829 5.56975169
H 0.43797376 -5.25285704 6.25412596
H 1.20749060 -1.23280779 7.89834327
H 4.05246598 -2.18452646 0.61576509
H 2.65894110 0.70009891 5.27420610
H 4.53744093 -3.13177215 7.33447716
H 3.04885485 -6.84091112 4.09754331
H -0.54562817 -4.18122594 6.22909729
H 2.56657751 -0.27572265 2.83357523
H 3.39981278 2.80677906 0.35088887
H 1.46581514 2.55102387 4.05249182
H 4.26203549 -1.05093744 1.76876696
H 5.52967487 2.30606687 0.14639100
H 1.69330881 3.14524125 1.96872551
H 2.73624248 -4.10644944 0.66769881
H 3.91552338 0.66062675 6.15460470
H 3.31548860 -2.76474984 8.12921975
H 2.79436181 1.65451869 1.19577330
H 0.60435470 3.96374674 2.66964623
H 3.24681662 -6.04892093 1.83471925
H 5.35292303 3.07030815 -1.16659602
H 3.63278831 0.88552300 3.02214022
H -1.24330621 -2.14564274 5.73972159
H 5.73965109 -2.35665936 2.92380728
H 4.76320789 2.85146388 3.50654182
H 1.80616654 -3.06428782 0.09936640
H 3.65921237 -5.99281654 0.41063980
H 5.03806218 -3.70718775 3.36535508
H 1.56899989 -3.79179022 5.11927244
H 2.10243632 -6.38835364 7.98059979
H -0.23111996 -2.05638581 -1.31333465
H 2.78088762 -5.16657248 7.33413502
H 0.54438217 -1.19550136 -0.25918130
H 5.66312036 1.27344299 1.69783507
H -2.23151750 0.70594627 1.46659127
H 2.91519082 -3.40854120 5.77148526
H -1.82526873 -2.56159745 7.16322892
H -1.13803731 -6.11600891 3.08786748
H 0.01932674 0.91093354 0.56941962
H 5.79586558 -0.22142407 5.72683721
H 6.77929927 0.90052519 6.29553787
H -1.75024556 0.56645594 2.93230568
H 5.68799833 0.15120600 0.79574417
H 1.47619065 1.16584199 -0.14341176
H 5.58697357 1.60291336 4.22794852
H -1.28483533 -3.66570790 2.19886773
H 4.27482637 -1.40053214 5.84923085
H -1.37911513 -4.93688603 3.96341751
H 5.30053026 -2.31224136 5.22907599
H -1.48372046 -1.89357319 3.61089951
H -0.68309975 -2.72388377 0.99618098
H -0.48920075 -0.89222907 4.03950569
O 3.38600468 -6.05233485 3.64739840
O -0.19133236 -4.85669189 5.63579615
O 2.14228610 -1.06384956 8.15480384
O 1.20116241 -1.34779500 3.45236154
O 3.11422981 0.16062550 5.96652707
O 1.50626278 1.92419932 4.83904288
O 2.52463475 2.47796383 0.68539870
O 4.71083046 -1.67419194 1.17777392
O 3.17655985 0.32360235 2.30735535
O 3.72487530 -3.54674348 7.70780104
O 1.51797056 3.63766827 2.86779799
O 5.07535306 3.10137783 -0.22139921
O 2.70381452 -3.12279561 0.48224286
O 2.46576853 -3.37549481 4.89485376
O 2.05721705 -5.78633513 7.23169688
O 5.63033194 -2.98655311 3.69156148
O 0.23507579 -2.14325655 -0.44033922
O 2.92719158 -5.72837295 0.96705219
O -0.96741702 -2.49004911 6.65498410
O 6.23819842 0.66627804 5.52358805
O 0.65906778 0.61686874 -0.14864593
O 5.04894027 1.93252015 3.42343600
O -1.44495730 0.88956978 2.06038980
O -1.73987765 -5.34257334 3.11999627
O 6.20656848 0.97753363 0.95574725
O -0.91029963 -2.77920678 2.04128396
O 5.18072086 -1.74503566 6.03702909
O -1.38176983 -1.19075392 4.33480511
84
i = 0, time = 0.0, E = 0.0;
H 1.82211431 -1.71508255 1.00227510
H 3.28462137 -1.59217855 1.46275131
H -0.13992056 -0.09704375 4.70278433
H 3.80055061 1.68664783 -3.19087602
H 1.77531797 5.99956208 1.47491306
H 1.01254285 -3.46024040 -4.30852745
H -0.99759597 -0.91856793 5.76547916
H 5.49061240 1.90696117 -1.78560711
H 0.35610485 0.59793525 2.47068353
H -2.19542252 0.53517267 4.24848120
H 3.18582981 0.26811167 -3.53318065
H 0.43582826 -3.94082491 -2.90717741
H 2.35247997 0.38676799 0.69498790
H 1.36229003 4.07506328 0.64793700
H 2.06225815 7.43904319 1.06382642
H 5.10144340 3.37023829 -1.57149242
H 2.08547258 2.27054096 -0.60865649
H -0.80683224 3.99229826 1.57161601
H -3.12178459 -0.69106779 -4.06412922
H 1.44356154 -0.39758041 2.93114902
H -2.28505007 1.68133862 3.20564219
H 1.47939511 3.82749139 2.22117332
H -2.09233763 4.12078100 2.31775370
H 0.49326256 1.40378355 -2.62227161
H 1.43981994 3.21960750 -1.65495585
H 3.64342839 1.05353857 0.11676380
H -1.85589791 -0.45437950 0.71916710
H 2.67249617 -0.95704542 -1.19774517
H 4.34261688 3.38211339 1.77406152
H -3.66676445 -1.29917083 -2.70045166
H 1.54495478 2.09357212 -3.59114420
H 2.30577005 -1.96028936 -2.42080111
H -0.48408011 -3.55153771 -0.60691198
H 3.20624863 4.11533260 -0.45075979
H -4.43992021 -2.38073441 -0.92119179
H 3.97007112 5.37892821 0.14319999
H -5.70410736 -1.65728709 -1.65081141
H 5.65121291 -3.33163561 -0.74563035
H -1.12119312 1.79557394 1.08495480
H -0.30693522 -5.17500190 -0.89852668
H -2.33704343 -0.41493061 2.22543841
H -0.20081551 -1.47404372 -0.46441146
H 3.08064342 2.64978612 3.21902658
H 5.27354198 1.64962799 0.98462330
H 5.83244522 0.26683842 0.54558782
H 0.27649668 1.38592222 0.48972433
H 4.18116317 -2.63242057 -0.92537981
H 1.72085372 1.87979239 3.48575538
H 5.44242510 3.32717643 2.83328586
H -1.34000771 -0.56501263 -2.74790339
H 5.95953358 -1.50528677 2.20417860
H -0.80580383 -1.87919453 0.85489273
H 5.62895120 -1.66854890 0.70641821
H -3.47703990 -2.23361356 0.83626242
H -0.19440192 -1.62567982 -2.85817367
H -3.45023156 -3.70977244 0.32728102
O 3.16802768 1.21868637 -3.81537178
O 0.97587867 -3.25198165 -3.38269141
O -0.88893232 -0.07402012 5.31486498
O 2.37640127 -1.38902299 1.77630333
O 0.97774023 0.45065171 3.20915309
O 2.51423834 6.69704108 1.53110284
O 0.95086405 4.35000873 1.51328490
O 5.03043918 2.66562946 -2.22157315
O 2.67712156 0.90558643 -0.08465930
O -2.71252355 0.83721528 3.47027024
O -1.49262232 3.42719167 1.95437261
O 1.82855392 3.25709445 -0.77671360
O -2.89395421 -0.83005788 -3.11515391
O -0.61849090 -4.36081362 -1.29653533
O 4.07844246 4.41939887 0.05189337
O 3.05259103 -1.54974174 -1.89221678
O -4.77433710 -1.90312801 -1.78186801
O 0.72746743 2.24835418 -3.00791071
O -2.23964791 -1.05810934 1.39945332
O 5.26227480 0.98621975 0.17040579
O 2.13134590 2.79507933 3.38664831
O 4.75955276 2.77598474 2.38671054
O -0.55471548 0.97311826 0.92958655
O -0.06569073 -2.15364861 0.19577294
O 4.87844554 -2.92535899 -0.26744566
O -0.35522539 -0.73518769 -2.44093245
O 6.20885288 -1.07026804 1.31907195
O -4.04951002 -2.94169126 0.45028828
84
i = 0, time = 0.0, E = 0.0;
H 0.14875915 -3.80195630 2.97337400
H -0.54957319 -5.14745095 2.85985544
H 0.03619888 0.60279845 4.78401417
H 4.64493033 -5.43714316 2.94787957
H 3.58826972 2.16098170 1.46135412
H 2.70381496 -2.42157643 7.48685483
H -0.61756184 1.24397122 6.13531070
H 4.82284234 -2.70073873 2.64436673
H 5.60536801 3.54797060 1.35812789
H -1.58111919 -2.50338410 5.61238143
H 3.45284090 -4.47468886 3.31147472
H 2.72916885 -3.94670434 7.31818223
H 2.91294456 -1.67543997 5.44723359
H 3.86208762 -0.54883642 -0.92197166
H 3.96611142 2.28216187 -0.10833064
H 4.15087327 -1.64949540 3.42776220
H 5.01815481 0.56884988 0.53753854
H 3.27717539 1.45275814 -1.99901956
H 1.92340589 -2.15856408 -0.29342918
H 6.74011222 4.53251415 0.81517188
H -1.52985607 -0.89431291 5.61338761
H 3.16249567 -1.62814130 -1.86860606
H 2.21868481 2.02400353 -1.18772444
H -3.24777293 -2.16538435 2.57716319
H 5.22213964 -0.92043451 0.70886507
H 4.00295326 -0.72399175 5.31326080
H -4.75180803 -2.71918560 4.23240807
H 1.86454694 -5.06450466 4.47569534
H 6.35713047 0.95314025 1.92116751
H 0.54971981 -2.80095207 -0.42333327
H -2.92582419 -1.26102928 1.39721338
H 2.49156532 -4.12080961 5.52932493
H 2.87534081 -4.10393589 -0.26639971
H 3.37957044 -0.71385741 8.57243649
H -1.50998044 0.45003041 -0.37116090
H 4.40514239 -0.99476954 7.43893247
H -1.94540088 1.18134465 0.91887683
H 6.35245608 -1.33845561 3.79247048
H 3.14852764 2.21249993 3.45996245
H 4.39310126 -3.55121119 -0.17923469
H -3.41810126 -1.89280900 4.61514694
H 1.28840266 -4.96846433 1.18747158
H 1.15555870 1.18346196 0.92977061
H 5.17183836 2.07359186 3.73687390
H 4.86577858 3.31509546 4.65309743
H 2.08020309 1.22712219 2.86220715
H 7.25404742 -0.07773623 3.87694227
H 0.99566824 0.01374145 -0.13156595
H 6.93706957 2.30534103 2.14607555
H 0.16735712 -2.17781544 1.75162574
H 4.97187371 1.05803523 5.84484369
H 2.76156558 -5.29805113 1.33311013
H 5.93474567 -0.18031926 5.80554987
H 0.59717098 -0.85687710 3.22140759
H -1.20218924 -2.04950620 2.51287479
H 1.79136526 -0.47168638 4.07157614
O 4.03852598 -4.80195119 2.52207915
O 2.25814303 -3.17596548 6.98439844
O -0.41970062 0.41733706 5.66545260
O 0.37401575 -4.78087549 2.96176904
O 6.40912937 4.04618909 1.62169989
O 4.34708672 2.21679963 0.82176064
O 3.26551435 -0.65946543 -1.70322474
O 4.90966595 -1.75792838 2.78061985
O 3.24030210 -1.07943500 4.73770046
O -2.10273408 -1.71511965 5.86433341
O 3.12753483 2.30920834 -1.52641934
O 5.25922996 -0.25433205 0.03454227
O 0.93963039 -2.01997607 0.01648771
O 3.52848612 -3.43973542 -0.64898838
O 3.82033046 -1.42527046 8.07849106
O 2.72486465 -4.79288638 4.83756034
O -2.29462583 0.58759417 0.22957869
O -2.69998387 -2.15555499 1.72112663
O -4.13241142 -1.97130421 3.97255211
O 4.56786786 2.38235849 4.49328813
O 1.00063890 0.97774208 -0.01901285
O 6.61858192 1.51795814 2.67161627
O 2.57242455 2.03943984 2.64816865
O 2.07259074 -5.20268090 0.64342634
O 6.99556990 -0.83890815 4.40476073
O -0.18095498 -2.27290298 2.65436749
O 5.10781767 0.12758239 6.24031134
O 1.08210575 -0.05255332 3.53243453
84
i = 0, time = 0.0, E = 0.0;
H 2.64862614 0.69439876 3.68096328
H 2.98679485 -0.72598579 3.03245817
H -0.58069809 1.70958621 4.44148556
H -0.66340116 -4.85288217 -0.95108916
H 1.65226054 3.52677970 0.22636553
H 3.20719854 -0.10466248 5.75954741
H -2.15672756 1.61527255 4.21686311
H -3.41030800 -1.80858133 -1.30470073
H -2.54510875 1.59192014 8.51642082
H -4.51025912 2.29341241 5.38659485
H -1.19711818 -4.29379344 -2.30476680
H 3.60209962 0.03652055 7.25632879
H 1.72496757 1.19321001 1.19704013
H 0.12802435 2.94294140 -1.35104500
H 2.84384365 4.51677882 0.53309524
H -1.88070291 -1.54783033 -1.62462506
H -3.08564203 -0.08875513 -2.99442906
H 0.91970577 3.18360678 -5.50469677
H -1.45449605 -4.15672175 1.10207201
H -1.67237357 1.33439588 7.33127441
H -3.51686290 1.74431110 6.38729519
H -0.54879002 3.35700368 -0.02504954
H 1.30893077 3.86057281 -4.32691267
H 0.88998313 -4.42475490 -2.01241541
H -3.22111023 1.20374420 -2.19916677
H 0.32172946 1.10380576 0.51886609
H 1.16004048 -1.49154896 4.55563617
H 4.33550776 -2.02279876 -3.15047698
H 2.23843082 2.96834535 2.44354985
H 0.04680846 -4.52193798 0.86054484
H 2.35400289 -4.66258028 -1.43268284
H 2.97313788 -2.56285868 -2.66214794
H -1.17922919 0.39185446 2.72381925
H 1.03647654 1.17427398 6.19995389
H -4.53371091 1.47901912 -0.13716861
H 0.15659873 0.01727313 5.56785558
H -3.72647349 0.07498284 -0.23171099
H 2.14263039 1.54627842 -4.13310297
H -1.52312929 2.26908593 1.99491797
H 0.14083479 -0.12095310 2.16415220
H -0.24056877 -1.17107952 4.09216553
H 3.91599845 -1.75108171 1.13947678
H -5.00146674 -1.76609273 0.68088835
H 3.54945380 0.35271110 -0.86608030
H 4.03404817 -0.79220554 -1.70837665
H -2.18635801 2.04949709 0.41471288
H 2.59828977 0.16045774 -3.43608703
H -3.35862511 -1.90390403 0.78623782
H 0.98355952 2.26309851 3.02051137
H 0.82244810 -2.17765869 -1.18663777
H -1.09009218 1.14895417 -2.67934903
H 2.74668948 -1.02794227 0.66385289
H 0.46676399 1.01817576 -2.39959042
H -1.17625933 -2.42626669 0.28747978
H 0.47752385 -0.92611621 -0.23289750
H -1.36728110 -1.52712170 1.46970123
O -0.53191570 -4.91424555 -1.95818030
O 2.89311829 0.29828180 6.63203728
O -1.32153371 1.70335848 3.72580525
O 2.82729662 -0.28146401 3.91373874
O -2.40303650 1.90341946 7.60956697
O 2.32893861 3.78314822 0.88649975
O 0.16361658 3.65781886 -0.66335048
O -2.71343676 -1.92216618 -2.04484203
O 1.23767762 0.67977247 0.52490280
O -3.81945584 1.57350213 5.41005489
O 1.72464654 3.24455389 -4.94444256
O -3.02733157 0.90250026 -3.11345607
O -0.83185365 -4.87368232 0.78250766
O -0.69213392 -0.47453456 2.57000920
O 0.08265050 0.99255264 5.88915228
O 3.40240167 -1.70320856 -3.01183993
O -3.67772109 1.08343891 -0.36562415
O 1.75261890 -3.91112720 -1.79471603
O 0.23950416 -1.45141718 4.95189546
O 4.21531320 -0.38013738 -0.81822530
O -4.14705874 -1.56081319 0.21075230
O 1.94934121 2.06913830 2.78824945
O -1.36367609 1.99706881 1.02327776
O 2.96869123 -1.60519734 1.42363030
O 1.93544324 0.88950384 -3.37278667
O 0.10302546 -1.60944426 -0.82850059
O -0.37108797 1.50528804 -2.16137869
O -1.77199071 -2.32031757 1.09448269
84
i = 0, time = 0.0, E = 0.0;
H 1.69144168 -1.72215028 -0.18572311
H 1.47825536 -2.28267029 -1.59055575
H -0.53988769 -1.12839352 1.61145011
H 0.52832988 -7.13382159 -4.75610862
H 1.24490752 2.33011501 -1.72928613
H -0.19970145 -9.19683374 -3.93305023
H 0.34187223 -2.46136824 1.65300325
H 2.47044297 -5.20132275 -2.05616400
H 1.62052525 -0.26309920 2.37899526
H -1.81940025 0.09294936 2.83702200
H 1.47597280 -5.98923577 -4.15040677
H -0.00524087 -9.32765887 -5.50443437
H 4.76853856 -1.16201364 -1.91171279
H 1.92179109 -1.96743993 -3.79677242
H 0.65059178 0.88104460 -1.18170250
H 2.65709458 -4.19523753 -3.23236553
H 3.98830054 -2.41964015 -5.17356030
H 0.11131346 -0.67279135 -2.69904488
H 0.25569358 -5.72047592 -6.63536808
H 2.56997763 0.76024266 1.82622281
H -1.01718608 0.89097355 1.84630027
H 0.48744624 -2.50099988 -4.12053891
H -1.05242661 -0.67333147 -1.49542331
H -1.58395652 -7.58911578 -5.50598042
H 4.22465832 -2.27638160 -3.56108347
H 5.16752292 -2.68565886 -1.69485433
H -0.49471889 -4.22600790 -2.11669111
H 1.32390862 -5.35198762 -0.30783802
H -0.35091015 3.24474343 -3.35685818
H 0.12495628 -5.01328922 -7.98917953
H -1.79731691 -6.42308469 -6.53289227
H 2.23028118 -4.23473614 0.21651152
H -0.22174526 -9.52705825 -7.84133314
H -1.86126349 -3.89504737 1.27991907
H 1.41463834 -2.44654877 -5.96007840
H -1.33402995 -4.11377976 -0.21847799
H 0.01836755 -3.32884198 -5.86185656
H 4.72541208 -2.01121084 2.28969791
H -2.29816376 -0.53845109 0.29749588
H 0.98876148 -10.35388609 -7.52724292
H -1.79359801 -4.99615582 -2.42372924
H -1.85273398 -8.82590595 -9.23119916
H -1.63206077 -3.82501649 -4.33831237
H 2.66141803 0.93521918 -0.38493587
H 4.22444216 1.09456346 0.13306785
H -1.80816551 -1.95868841 -0.01311899
H 3.89534119 -1.09915967 1.18017251
H -0.37057215 -4.78954975 -4.54607139
H -0.21951435 1.83193794 -2.68510353
H -2.57966244 -6.04269555 -4.57842464
H 5.00493739 -4.48963411 -0.43170142
H -0.94984026 -7.68281741 -8.70743263
H 4.89770737 -3.08388429 0.26518379
H 0.74458778 2.30080620 1.14971155
H -3.74888216 -5.70059946 -3.59506095
H 1.01526736 1.58518308 2.50391032
O 0.71773192 -6.14182765 -4.78877715
O -0.08649361 -8.70525332 -4.76378803
O 0.35388565 -1.49119821 1.90893775
O 2.15879022 -2.22657806 -0.86100966
O 2.25407167 0.46469485 2.71484289
O 1.16697519 1.72663944 -0.90540892