12
i = 0, time = 0.0, E = 0.0;
H 17.74395903 23.14687502 18.87998242
H 17.54408818 18.31183159 20.47654310
H 18.50484002 19.30864738 19.71887964
H 20.58325570 18.63299744 19.64482724
H 20.38928647 20.13134625 19.75998439
H 18.00843696 21.80877439 21.76297333
H 17.98577305 20.39634156 20.98693744
H 18.75050083 22.33454674 19.52717150
O 18.75113094 23.10798665 18.95913142
O 17.50983784 19.15805927 20.01426383
O 20.14609666 19.36019779 19.15052546
O 18.54287911 21.17848807 21.26323408
12
i = 0, time = 0.0, E = 0.0;
H 18.71197254 22.00120777 20.12612682
H 18.28802078 20.04808463 20.84918668
H 19.81931876 20.62349163 21.16414197
H 20.59479918 19.21042055 18.39451215
H 21.75196458 19.09338980 19.26231449
H 15.91095407 20.47292137 20.12631019
H 16.98663578 20.73570098 19.13190574
H 19.11223821 22.64171561 18.62377082
O 18.37181085 22.33796635 19.21386746
O 18.83011952 20.67530951 21.39836923
O 20.91914799 19.64622361 19.16402391
O 16.72391654 20.09762833 19.80488520
12
i = 0, time = 0.0, E = 0.0;
H 18.72721127 22.63515684 22.52814193
H 19.92311516 22.08741608 18.71121601
H 19.52791971 21.76079403 20.13877925
H 20.41549676 19.31127906 16.70819022
H 19.83461436 19.98675182 17.90668389
H 17.26078344 19.15782725 20.92690746
H 16.87526944 20.48680250 20.33373822
H 18.41596040 21.14110083 22.06503145
O 18.92344900 21.97985384 21.86451909
O 19.44448911 21.37836984 19.20286799
O 19.58929311 19.27768893 17.22277654
O 16.90008305 20.01157595 21.18762931
12
i = 0, time = 0.0, E = 0.0;
H 19.55258103 22.60360453 21.29552805
H 20.25726336 19.20707534 21.72471484
H 19.24853976 19.16399559 20.53267311
H 18.58219964 19.98265024 18.22910783
H 18.11892947 18.46354929 18.27977588
H 18.08992299 21.88288373 19.55874990
H 18.12960948 22.43340358 18.15223281
H 18.79387657 21.41932598 21.65570437
O 18.65385150 22.26188138 21.24656734
O 19.60336316 19.72094747 21.22890392
O 18.89588437 19.05645217 18.35094972
O 17.71728529 21.69708345 18.64445419
12
i = 0, time = 0.0, E = 0.0;
H 17.68649182 21.49972433 18.23179466
H 18.30115428 21.33499060 20.98611587
H 18.88623474 21.49398032 22.48386089
H 20.52760868 20.33278099 20.59613112
H 21.13253852 18.90324145 20.82560254
H 18.42013138 19.83210309 19.95422406
H 16.97319510 19.55709120 20.32832887
H 17.48109947 21.22142714 16.74165466
O 18.14902026 21.30225716 17.40009168
O 18.96785314 21.83319653 21.53833085
O 20.29998872 19.41801113 20.54392126
O 17.53948910 20.24471590 19.94321734
12
i = 0, time = 0.0, E = 0.0;
H 19.52238215 21.57814514 18.88832268
H 18.13056630 20.61749964 23.86590978
H 17.11244616 20.73469129 22.67076215
H 18.30751524 19.99050400 17.52109814
H 18.40792723 18.52842098 17.89559573
H 18.92726329 21.09988346 21.57895532
H 20.23364262 21.92881277 21.37685261
H 20.59806228 21.21101597 17.96561605
O 19.68856936 21.50314977 17.92761037
O 17.98335896 20.31356126 22.97118798
O 17.75224116 19.16875676 17.47659615
O 19.41679939 21.71734804 20.94839007
12
i = 0, time = 0.0, E = 0.0;
H 18.35126760 23.87013736 20.79526736
H 17.79132900 19.64482531 19.50918705
H 18.71859257 19.03020592 18.53082903
H 20.05888997 18.67230325 20.05378108
H 20.99819560 19.53685579 20.94800374
H 17.49681160 22.20166840 19.79710784
H 16.07219405 21.65171831 20.30463117
H 18.75974694 24.10050671 19.21018488
O 18.64673324 23.41777958 19.96692990
O 18.38790848 18.84683847 19.40770182
O 21.02896152 18.87687205 20.22454252
O 16.96592242 21.37110120 19.88931020
12
i = 0, time = 0.0, E = 0.0;
H 19.95454141 21.10487962 20.66130847
H 20.06916473 18.40460861 20.29556334
H 19.24343720 19.35005825 19.32276923
H 17.14917510 19.66549697 17.85583346
H 17.60294622 20.50942198 19.08462820
H 16.79953979 22.10568121 20.33144544
H 18.10248205 21.53416101 20.77657067
H 20.51980204 22.40780859 21.33783833
O 19.77695623 22.09038226 20.80565902
O 20.01219858 19.35525570 19.91922616
O 17.96397595 20.05509135 18.24865899
O 17.20116432 21.24032088 20.48236945
12
i = 0, time = 0.0, E = 0.0;
H 18.05753512 23.22687684 19.63939797
H 17.98946085 18.28889721 20.83459845
H 19.24963754 19.19416198 20.44305427
H 17.03004378 20.02812505 17.82158781
H 17.96117849 19.61417826 18.89577026
H 19.79466473 21.82448777 20.52939833
H 21.38504220 22.08161211 20.60115882
H 17.90008269 21.69852866 19.41292789
O 18.05201711 22.41462468 20.11711587
O 18.68476474 18.46169655 20.16164085
O 17.54728809 20.41716329 18.53436559
O 20.67485238 21.39245288 20.73654517
12
i = 0, time = 0.0, E = 0.0;
H 19.28441465 23.01478155 21.72138795
H 19.03418780 21.36881071 19.51681499
H 20.14848034 21.27363206 18.54314059
H 20.89857491 17.84328428 18.43935837
H 19.59051368 18.43530305 18.99425081
H 15.78989320 22.14414241 20.58163526
H 15.77974059 20.87120568 21.47888979
H 18.08025901 22.59345034 20.83196903
O 19.00695942 22.92208169 20.78388229
O 19.69551966 20.70672660 19.16095630
O 20.01336879 17.58225775 18.64544128
O 16.29105705 21.37483734 20.83781815
12
i = 0, time = 0.0, E = 0.0;
H 21.10064755 20.17192310 18.43167717
H 19.80542398 19.98167843 20.81196480
H 19.88849532 19.20179604 22.01278722
H 17.58687934 21.29695823 18.54327350
H 17.27671552 20.00045667 17.66769097
H 17.49715214 20.96177677 20.99885717
H 17.30287973 22.46022589 21.51206396
H 19.68138873 20.47595374 18.66960805
O 20.59982111 20.73902871 19.07381885
O 19.21932443 19.67868062 21.52247599
O 17.98431079 20.48497781 18.16549685
O 17.10683090 21.87184001 20.75826211
12
i = 0, time = 0.0, E = 0.0;
H 19.63727656 21.94843122 19.16838561
H 18.30340367 22.74442323 21.53911145
H 18.05321453 21.31666712 20.99830764
H 19.29759899 19.83119164 18.52130780
H 19.30751242 18.27970469 18.73073013
H 17.86388024 19.39788635 20.58696128
H 16.85844691 19.49449112 21.84975813
H 20.11825395 22.04464179 17.55520462
O 20.18892922 21.54880367 18.43145997
O 18.69718642 22.13921401 20.89579168
O 18.82702307 19.06772241 19.04726794
O 17.24125097 19.98686497 21.12651686
12
i = 0, time = 0.0, E = 0.0;
H 19.81043901 21.53310395 20.29221347
H 17.57085568 21.94741790 19.91199093
H 16.01626221 21.73292664 19.32503105
H 21.11209149 20.19467486 18.04266941
H 19.92247352 19.59957340 19.12237125
H 17.86988246 18.98571068 21.01711000
H 17.55811919 19.70059854 19.67536345
H 19.41180294 23.02014711 20.77758893
O 19.09975342 22.07226460 20.70891329
O 16.82026908 21.26544572 19.69042415
O 20.78367770 20.19213953 19.04394410
O 18.26125277 19.10837560 20.10723997
12
i = 0, time = 0.0, E = 0.0;
H 20.50154672 21.27209202 20.39224222
H 15.97369745 20.59847142 20.14309629
H 17.25744433 21.43159487 19.69499595
H 18.94366243 18.83189914 21.62374577
H 18.04731700 19.39324822 20.55535580
H 19.43658384 21.78361082 19.00045664
H 18.60535152 22.59874226 17.97076912
H 20.20191292 19.83166834 19.75027244
O 20.55453909 20.77338124 19.53905837
O 16.93631400 20.75236390 20.35047425
O 18.87159679 18.82589692 20.65277989
O 18.62168215 22.34787527 18.94730966
12
i = 0, time = 0.0, E = 0.0;
H 20.66469694 19.37123117 18.19934162
H 18.38145144 21.60753503 20.96509133
H 17.05490837 21.91872055 21.83131222
H 16.67449882 19.19670166 18.97510538
H 17.34608067 20.04299122 20.09945420
H 19.33260793 22.40030203 19.21454218
H 20.20765963 21.29834875 19.78415956
H 19.35296207 19.38395866 19.01690752
O 20.26757537 19.78824266 19.01611829
O 17.41680155 21.59520682 20.93962503
O 17.50673951 19.17114192 19.56457744
O 19.79003239 22.17778486 20.03514180
12
i = 0, time = 0.0, E = 0.0;
H 17.17657891 22.65436150 20.86389944
H 19.55005331 19.84749988 18.44645667
H 20.44419215 18.61694248 19.02474381
H 17.17801575 20.94084857 19.21158630
H 17.27206236 21.55902378 17.83489529
H 20.07877506 20.30393900 20.67297596
H 20.14688341 20.18824359 22.26698560
H 18.16439878 21.51171399 21.30555508
O 17.27849838 21.66693285 20.82393697
O 20.43423177 19.60127296 18.85505590
O 17.32329917 20.66852342 18.26100798
O 19.88236165 20.77027005 21.51836105
12
i = 0, time = 0.0, E = 0.0;
H 18.87931127 22.63069601 19.50573468
H 17.85031123 19.52712166 21.16779586
H 18.63446123 18.88850213 22.29983102
H 20.49461536 20.61729673 19.80144004
H 20.29459029 21.51681105 18.55419819
H 17.64372054 20.53258805 19.13063207
H 18.11815638 19.21937133 18.52389096
H 17.83929425 22.37073843 20.61797288
O 17.96984912 22.27834682 19.62059702
O 18.65465671 19.67445803 21.70705148
O 20.95354000 21.15580473 19.17763218
O 17.35650560 19.61851615 18.95469426
12
i = 0, time = 0.0, E = 0.0;
H 19.09428016 23.04422321 20.36661340
H 18.45388093 21.04858403 17.19826582
H 18.32120830 20.79651393 18.73645691
H 20.29057566 17.60421313 20.86115617
H 19.44256165 17.11617235 22.03588304
H 17.88801225 19.30233842 20.84600161
H 17.40382888 20.81975919 20.90676703
H 18.62100533 22.95606996 19.01327339
O 18.83279631 23.63913399 19.62014908
O 18.83597896 21.29032328 18.08151827
O 19.48161078 17.82731480 21.37962975
O 17.79923008 20.13512479 20.35581233
12
i = 0, time = 0.0, E = 0.0;
H 18.46113512 19.17746189 20.85267299
H 21.87104810 18.53154277 19.38611264
H 21.91641189 18.10134178 20.96346466
H 15.97957921 22.78939598 17.73509685
H 16.96355735 22.12632146 18.86426521
H 18.37324578 21.57283425 20.42850021
H 18.27992776 23.10911823 20.36882873
H 19.92225201 19.54632979 20.73159499
O 19.03375365 19.92366873 20.99472453
O 21.32008360 18.41574564 20.26078186
O 16.70431378 22.09242421 17.88844892
O 17.74959258 22.31726164 20.33309114
12
i = 0, time = 0.0, E = 0.0;
H 16.43954806 21.40888435 20.86144073
H 19.43939001 19.44545061 20.70726224
H 18.89107462 19.29131436 19.25977581
H 18.42853053 18.85938405 17.34348285
H 19.57048027 17.91149436 17.72782716
H 19.22135391 23.16999415 21.04496339
H 19.45362069 22.56419234 19.68104153
H 17.49755546 20.47605394 21.16948338
O 17.14636434 21.33738548 21.55529997
O 18.60311717 19.44863984 20.19452687
O 19.38757494 18.84735837 17.56274930
O 19.84871132 23.23086113 20.26119770
12
i = 0, time = 0.0, E = 0.0;
H 18.39900281 23.00289609 18.19043286
H 18.92669534 19.29184795 18.99720345
H 20.26755594 19.09586575 18.23904939
H 17.47593728 18.92789162 20.82079532
H 18.45659230 20.01984913 21.23188802
H 19.27927118 22.04350643 22.13938304
H 18.54372401 21.94454875 20.77269023
H 18.69286406 21.61418921 18.17894262
O 18.58941901 22.34443639 18.82694049
O 19.43734435 19.54305521 18.20732649
O 18.43132135 19.15563963 20.72573265
O 18.45837310 21.64383142 21.76493935
12
i = 0, time = 0.0, E = 0.0;
H 18.43137220 22.21920222 20.58227542
H 20.27402136 20.47410103 20.58029536
H 20.19592381 19.17941031 21.12167012
H 19.10004719 19.49922946 19.04830040
H 18.76556438 18.98979765 17.57873601
H 17.20938118 21.00627918 19.21865990
H 16.54030627 22.25766613 19.03099693
H 19.08671848 22.44889450 22.00596560
O 19.28393300 22.09942799 21.09532469
O 20.41176240 19.54033738 20.22910686
O 18.36839126 19.34202990 18.39019440
O 16.87998628 21.69672576 19.77273026
12
i = 0, time = 0.0, E = 0.0;
H 20.94675995 20.87089095 18.68991108
H 18.60871883 23.10152426 19.59332242
H 19.52402531 22.08943968 20.10001945
H 18.08277851 19.42543249 19.65204169
H 18.76838337 17.93621319 20.05078568
H 16.06774195 20.15506472 20.44283898
H 17.19530007 21.31657978 20.34136008
H 19.86701168 20.23069288 19.74170767
O 20.60778236 20.95708737 19.63058503
O 18.64150333 22.52462249 20.32943436
O 18.88943632 18.79357318 19.54954750
O 16.83953783 20.46301250 20.01275098
12
i = 0, time = 0.0, E = 0.0;
H 18.84492429 21.94988358 18.66772694
H 18.89335609 19.67850482 21.02367406
H 18.97177463 18.16655511 20.83073274
H 19.24693145 19.76798080 17.54920573
H 19.51838275 19.77959511 19.06987704
H 17.70034652 21.26310829 22.19575186
H 17.87583897 21.61664512 20.65886276
H 17.72857051 23.00749924 18.70611269
O 18.32181401 22.51289945 19.28059722
O 19.59306914 18.91758983 20.68267382
O 19.44007332 20.43454198 18.23588126
O 17.64098194 20.86671603 21.31749796
12
i = 0, time = 0.0, E = 0.0;
H 20.12208485 25.01457984 20.62519581
H 17.68932642 19.00294958 18.80444447
H 16.91120606 20.23376769 18.54151104
H 18.89673121 16.86319009 18.13544410
H 17.81666859 16.46089008 18.99774088
H 19.09993427 21.12677610 20.28374559
H 19.88029020 20.69211596 21.57798735
H 19.76537745 23.52854480 21.06460421
O 19.48886661 24.45401084 21.16077908
O 17.58129751 19.91486834 19.22313067
O 17.97012749 17.12202826 18.30512657
O 19.86734715 21.38618728 20.86990661
12
i = 0, time = 0.0, E = 0.0;
H 17.99864346 22.23354993 21.83820458
H 20.53643869 22.22038268 19.06228678
H 19.77229904 21.67742102 20.34014556
H 19.40188089 18.33812304 19.79339036
H 19.80688836 19.68528617 19.37616653
H 16.53687410 20.73366220 18.65247081
H 17.45277181 19.68884347 19.29063003
H 17.59227018 21.39361147 20.60788739
O 18.41877370 21.75872172 21.14942877
O 20.53267028 21.47810564 19.71624337
O 19.16140668 19.01956344 19.10214763
O 16.86305619 20.42866376 19.53249742
12
i = 0, time = 0.0, E = 0.0;
H 20.05335504 20.94384499 19.29122002
H 18.44993288 22.11063346 18.19146228
H 18.46315317 20.60200177 18.39960950
H 16.45451282 19.66838530 19.47245145
H 17.64388761 20.40514664 20.26792192
H 19.13355502 20.87243309 21.54891153
H 17.96325942 20.62116406 22.47292982
H 20.95925206 19.82010188 19.94275766
O 20.36090625 20.55252180 20.18183843
O 18.97878595 21.30158126 17.91510949
O 17.41729515 19.64706012 19.61187870
O 18.21748038 21.24230671 21.75204496
12
i = 0, time = 0.0, E = 0.0;
H 20.41747303 20.70432515 18.58586526
H 18.55499285 20.93841399 20.24599104
H 18.33890574 21.60731532 21.62100384
H 21.95202406 18.00901338 17.50147881
H 21.06769321 17.90941667 18.63934193
H 16.19769159 21.31544146 21.36563617
H 14.89427210 21.35280636 22.03154675
H 19.17289126 21.24816704 18.15736812
O 19.87714316 21.45201540 18.79115943
O 18.04205495 20.84923257 21.10072351
O 21.44097974 18.59686704 18.05399161
O 15.52135679 21.96876771 21.60566169
12
i = 0, time = 0.0, E = 0.0;
H 19.61410619 20.06928181 18.25796086
H 18.49231818 23.20081919 19.71960282
H 18.27739142 21.77861823 19.07704862
H 20.33058201 18.73680978 20.63691938
H 19.27074217 19.94528388 20.64850648
H 17.60026551 21.16399027 21.21198902
H 17.05306016 19.68980814 21.53352247
H 18.16283174 19.98544439 17.88775704
O 18.89473911 20.58272269 17.82121188
O 18.15174328 22.35042582 19.90634568
O 20.09859396 19.59016506 20.24216930
O 17.84952811 20.24999846 21.52982649
12
i = 0, time = 0.0, E = 0.0;
H 15.54149752 26.26918664 21.42329329
H 21.61310639 20.11293344 17.84250631
H 20.89823014 18.96770201 18.57279503
H 18.72911700 17.36259248 18.29178977
H 19.03869682 18.15599019 19.55919989
H 19.26108267 19.18338270 21.82250257
H 20.03272434 19.82000616 20.59742686
H 15.14216748 25.70649071 20.08699575
O 14.81634116 25.71572927 21.04974380
O 21.43427225 19.77424129 18.75096067
O 19.48175151 17.66247155 18.79670719
O 19.17054832 19.55734753 20.95108297
12
i = 0, time = 0.0, E = 0.0;
H 17.29707620 22.21231915 20.96102869
H 20.14175504 20.49937730 18.28662907
H 19.51514563 19.53167307 19.34194609
H 22.07134267 17.78105404 18.45370557
H 22.43733092 18.94137470 19.40820901
H 15.10566327 20.62186383 20.11806704
H 14.91767896 19.85590008 21.36379141
H 17.52255522 23.35238176 21.96679700
O 17.75450688 23.11862812 21.04909213
O 19.41218350 20.46293552 18.92341858
O 22.32984428 18.73928236 18.45903224
O 15.48501220 20.56424203 21.00961410
12
i = 0, time = 0.0, E = 0.0;
H 16.11893418 21.54362306 20.06009847
H 21.54450292 20.42177281 19.44201850
H 20.12418684 20.01013850 19.16964981
H 17.72236729 19.82900982 18.91962168
H 18.52487567 20.10891095 17.70302540
H 19.29486009 21.05042219 22.32378284
H 19.79595536 21.56323075 21.07053301
H 17.32381249 21.05169362 20.75269579
O 16.80349748 20.87612908 19.95678067
O 20.64496352 20.76659143 19.48101171
O 18.49929961 19.50507732 18.44534749
O 18.94300091 21.56195922 21.58692014
12
i = 0, time = 0.0, E = 0.0;
H 20.39225184 22.88529609 20.09181336
H 19.64878263 19.96846753 22.28106579
H 18.65577172 19.94912660 21.01479554
H 17.83607216 19.63448660 19.22245318
H 18.66331924 18.40664552 19.51153636
H 16.88421946 21.82503671 18.60610662
H 18.27645859 22.06574181 19.08605877
H 19.91447640 21.45379011 20.02382205
O 19.96888289 22.24532462 19.50844458
O 19.47527081 20.33803077 21.36857362
O 17.76264022 18.77387120 19.68030486
O 17.69519129 21.31411133 18.88777312
12
i = 0, time = 0.0, E = 0.0;
H 18.64875933 22.32678796 19.92691563
H 19.53728304 20.66436831 18.62321897
H 19.67746513 21.84957194 17.55583688
H 20.41328312 18.70783633 19.41763544
H 19.01811795 19.08764854 20.02713423
H 17.67151330 20.63776767 21.07405919
H 17.20831073 19.23548969 21.69253541
H 18.04450802 23.27276533 20.97952100
O 18.24847621 22.31519348 20.81821044
O 19.29190746 21.61050386 18.45000240
O 19.57549140 19.14231466 19.20929560
O 17.78939337 19.62892789 21.00165995
12
i = 0, time = 0.0, E = 0.0;
H 16.37911569 18.95463926 21.36393537
H 20.70250103 19.75061698 19.55906270
H 21.63121783 18.62003179 19.34165727
H 18.58972534 18.36137654 18.22020960
H 18.17071176 19.50259176 19.03726033
H 17.87744108 24.66957733 19.64511069
H 18.12760527 24.98365430 21.10958003
H 17.89220857 19.32900472 21.63933892
O 17.29288577 18.82773716 21.08305582
O 21.60934174 19.48040924 19.80749004
O 18.57189591 19.33822550 18.19212440
O 17.48461737 25.15205117 20.35747989
12
i = 0, time = 0.0, E = 0.0;
H 17.09964377 20.29842333 19.63582818
H 20.81184481 21.93587162 21.61919655
H 20.31975541 21.34969160 20.24027172
H 19.81262400 20.22830210 18.47696272
H 18.50326728 21.06624250 18.72200609
H 17.86898241 18.98064542 21.49135804
H 18.68696104 20.40266735 21.36220548
H 16.14682231 20.40060595 18.34113833
O 17.00832070 20.67664380 18.69973529
O 20.45017431 21.13906668 21.19644415
O 19.54174694 21.16500206 18.64432057
O 17.96609869 19.78677828 20.90136309
12
i = 0, time = 0.0, E = 0.0;
H 16.64472874 21.78409742 20.59684019
H 18.26592614 20.42851200 21.15410680
H 18.47840895 18.92274587 21.53373371
H 22.63840461 20.46040076 17.58964094
H 24.01616151 20.10034979 17.13754521
H 16.40156736 19.81969588 19.85803480
H 15.36916227 19.86579488 20.91811074
H 17.18004715 23.00180297 21.38599481
O 17.45668752 22.12421181 21.04655221
O 18.40559278 19.54235296 20.76819443
O 23.57160678 20.80957983 17.58034730
O 15.54855075 20.30892749 20.02881050
12
i = 0, time = 0.0, E = 0.0;
H 17.00028216 22.98361925 20.59115151
H 20.18135824 21.76986612 18.75791877
H 21.49612510 20.89145906 18.71348780
H 18.32937932 18.74839723 19.32817386
H 19.21602847 17.65080881 18.53721021
H 17.32178190 19.71749875 22.16033203
H 17.71403420 20.39159232 20.81645916
H 17.83527223 24.23580496 20.63059483
O 17.92499059 23.28146034 20.49859488
O 21.09571978 21.78536044 19.10129005
O 18.32092480 18.04173768 18.63366013
O 17.63451140 19.55014996 21.23059870
12
i = 0, time = 0.0, E = 0.0;
H 18.19151532 23.27626966 19.69466053
H 17.49517329 21.48186135 21.27219224
H 16.75370408 20.33389558 22.07320996
H 21.20969229 21.24201512 18.84547338
H 20.40477485 19.81792341 19.03076314
H 18.27896862 19.43906653 20.25813395
H 18.95288951 18.20023442 19.59559253
H 17.55341515 22.31660164 18.71217945
O 17.40573198 22.73842967 19.55017575
O 17.61997954 20.56764705 21.59191114
O 21.25299174 20.27162615 18.89272739
O 18.71345440 19.09872094 19.43267643
12
i = 0, time = 0.0, E = 0.0;
H 20.17726502 22.79493298 20.11965647
H 18.99759553 19.90337942 18.70692275
H 19.66834096 20.38048965 17.29624843
H 18.34300251 18.12252685 19.88871923
H 17.65382854 19.42929621 20.43569149
H 17.42673982 20.83556574 22.38782017
H 18.27775969 21.70522020 21.55676800
H 19.29342906 21.78158990 19.34623263
O 19.27468292 22.63367262 19.85099101
O 19.69507420 20.47347750 18.23941408
O 17.76192415 18.89968253 19.60753047
O 18.19760929 20.74235230 21.75343532
12
i = 0, time = 0.0, E = 0.0;
H 19.94874940 20.70956496 20.11776735
H 19.78146746 18.25556042 19.16182073
H 21.21050180 18.48337440 19.60038259
H 17.79908605 19.07083268 18.50391560
H 17.80230988 17.58708302 19.00997944
H 16.90389711 24.48968563 20.61811548
H 17.68589526 23.86568102 21.72492576
H 20.33800169 21.65113554 19.12531499
O 19.59388225 21.59904672 19.76776306
O 20.30116891 18.57206464 19.96314562
O 17.99786658 18.13471887 18.21000355
O 16.93355371 24.49628327 21.62864381
12
i = 0, time = 0.0, E = 0.0;
H 17.93910038 23.00000140 21.32747351
H 21.29498824 21.25306808 19.44638259
H 19.99183649 20.40774363 19.41866598
H 19.09527292 18.58286665 17.80687956
H 18.39099779 19.43243090 18.98443463
H 17.09892215 19.84727799 21.15603123
H 17.34880368 20.86865078 20.10816602
H 19.10059848 22.21203945 20.70992615
O 18.28491012 22.09205542 21.17341531
O 20.40683913 21.26544979 19.84383179
O 19.13471901 19.42765330 18.33205088
O 17.07619940 19.92300596 20.15122228
12
i = 0, time = 0.0, E = 0.0;
H 17.16278623 20.50375425 19.38664641
H 18.37127132 21.66016999 20.48061045
H 19.34435508 22.87677202 20.58332082
H 21.35482499 20.00008166 20.22203524
H 20.20886495 20.89007867 19.99532935
H 19.10874753 19.22297550 19.34063979
H 18.05990815 18.30241641 20.01014228
H 16.18293729 21.51612639 20.16933286
O 16.90445536 21.51875786 19.50998460
O 19.21288853 21.97404728 20.88600156
O 20.67600200 20.15437678 19.58692423
O 18.13873357 19.10078240 19.44010884
12
i = 0, time = 0.0, E = 0.0;
H 21.01269811 21.70949435 20.23441164
H 18.54069368 18.66138128 19.89425568
H 17.91066852 19.91186936 19.27006724
H 18.21540159 21.76812268 17.12327458
H 19.16717850 21.66116449 18.22286257
H 17.69919930 21.81376156 21.87815162
H 17.95272455 20.34189992 21.52062588
H 19.54732048 21.21113094 20.69995698
O 20.19120067 21.27715389 19.90113883
O 17.67552136 19.18091236 19.97273612
O 18.70496308 21.03746111 17.59538736
O 18.34450545 21.11972233 22.03846267
12
i = 0, time = 0.0, E = 0.0;
H 19.57709697 21.59702690 15.88944457
H 23.06487969 18.47151640 21.34684784
H 22.70200883 19.79662199 22.09450586
H 17.69276601 18.81282512 19.20361514
H 18.54854757 19.77826422 18.27189356
H 14.84082752 23.60635678 21.43333945
H 14.23014029 23.44676171 22.89849743
H 18.01027815 21.48798014 16.13087521
O 18.85064285 21.78003656 16.58961632
O 23.17357869 18.92007889 22.19825756
O 18.57790098 18.95052845 18.76108489
O 14.40097186 22.96973880 22.05797139
12
i = 0, time = 0.0, E = 0.0;
H 19.15022830 20.54057501 20.50697211
H 18.40695743 18.75451027 21.64889285
H 18.69648351 18.36983153 20.18781485
H 20.14750992 20.53639527 18.49868686
H 20.55258441 20.00968661 17.15157476
H 16.16628372 21.71823956 21.02569684
H 17.48961481 22.17719490 20.33415266
H 19.48455172 22.06562956 20.64053222
O 19.14146914 21.45814617 20.00550338
O 18.77794925 19.11132786 20.79645392
O 20.41476403 19.73040869 18.02765545
O 16.57896319 22.49850442 20.60561250
12
i = 0, time = 0.0, E = 0.0;
H 19.25790811 21.98493176 20.83457725
H 19.48200757 22.35817612 17.54153762
H 18.94282792 23.66776392 17.77130192
H 19.41337413 20.17621604 17.91147369
H 19.96794960 20.07714882 19.34822484
H 16.09378287 17.59836356 21.70936804
H 16.54906058 16.76842054 22.82135155
H 18.38424584 22.21532303 22.02688596
O 18.92878519 21.54045049 21.62744461
O 19.26168900 23.12876271 17.05294979
O 19.97139535 20.69406281 18.54546626
O 16.87747657 17.39262877 22.21122966
12
i = 0, time = 0.0, E = 0.0;
H 16.80817329 20.08645467 21.33030456
H 20.14111406 21.15063659 21.28411873
H 20.01993739 20.17885760 20.07841262
H 19.78224048 19.35185055 17.89361216
H 18.97808310 20.58871388 18.39743598
H 17.69717370 21.43646392 19.85325603
H 16.73913851 21.33612881 18.48458272
H 18.43288011 20.42935157 21.25919582
O 17.46742384 20.78278032 21.28594329
O 19.98935441 20.19216666 21.06240724
O 19.91216066 20.25864376 18.30128002
O 17.63842743 21.54045198 18.87464474
12
i = 0, time = 0.0, E = 0.0;
H 17.32680886 20.08356489 19.69806839
H 21.01881630 22.65243997 19.73161457
H 20.43086206 21.53939200 20.69364267
H 19.07452345 19.45409181 21.06158740
H 20.41142750 18.87196916 20.48104518
H 17.21998821 21.93941939 17.67667454
H 18.13707074 21.89400166 18.90049701
H 16.79817742 18.71645833 19.64322964
O 17.13032504 19.33970437 20.28811708
O 20.22954542 22.36871122 20.17601118
O 19.94870833 19.68396629 20.78002334
O 17.58418755 21.34430711 18.32388368
12
i = 0, time = 0.0, E = 0.0;
H 18.23912288 24.19937296 21.16701333
H 17.78491722 20.26843152 17.96080259
H 17.58649177 19.81628032 19.39364434
H 19.39846749 17.66883480 19.27254811
H 19.67024328 16.12173693 19.15755982
H 19.93364172 21.41224313 21.42732371
H 19.71306264 20.95913213 19.94580271
H 18.06373500 25.61710725 20.54642345
O 17.66237766 24.97204405 21.18831199
O 17.89074447 19.44666638 18.51197592
O 20.07716145 17.00695730 19.05883985
O 19.26424640 21.25357414 20.74686386
12
i = 0, time = 0.0, E = 0.0;
H 19.32470215 19.67343323 20.64295745
H 20.18336241 21.78519968 19.76024704
H 20.49225077 21.93532295 18.19212145
H 17.34607621 20.02845829 20.02120760
H 16.77816890 18.92451726 20.81374047
H 18.15043360 21.81990225 18.97942861
H 16.56551007 21.97695169 19.20301297
H 20.13776592 20.04729954 21.80321737
O 20.22082084 20.04784345 20.82928783
O 19.85284972 22.09230383 18.93319776
O 17.56222462 19.06599130 20.24745979
O 17.34755929 21.46504222 19.46172074
12
i = 0, time = 0.0, E = 0.0;
H 20.26050123 20.93696900 20.47323444
H 17.18573356 19.04042514 19.30962644
H 17.71885441 20.52905945 18.89798959
H 18.90738043 19.24208855 22.32676372
H 18.88596771 19.19485207 20.73585834
H 17.13054710 23.03366768 19.35769923
H 18.35674041 22.13995399 19.00973517
H 21.12785843 21.97899598 19.77090597
O 20.16802904 21.85573675 20.09316495
O 17.99661669 19.56976223 18.99402495
O 19.37762836 18.96524691 21.56078111
O 17.40367331 22.28642488 18.79434287
12
i = 0, time = 0.0, E = 0.0;
H 20.44519237 19.80912964 19.18934581
H 18.55389603 20.42685126 20.79165159
H 18.70619265 20.42809818 22.30506225
H 19.76184916 17.56197523 18.52351761
H 20.62134049 18.47204712 17.51733278
H 16.29128341 23.35544958 19.13868951
H 16.95584040 22.75380863 20.44925446
H 20.43838948 21.32869157 19.21398439
O 20.20446985 20.57522857 19.80844167
O 18.04336446 20.16689463 21.59660652
O 19.90996094 18.45235725 18.20730623
O 16.64951823 23.60617556 20.00340765
12
i = 0, time = 0.0, E = 0.0;
H 19.19111528 21.21952721 21.91306001
H 16.92194710 19.87966166 20.90668662
H 18.04927725 19.42277759 20.07616357
H 19.21860294 19.19816179 17.21599764
H 18.82001743 20.15015506 18.43387568
H 18.37105393 22.72711488 18.43109785
H 19.23979103 22.02348067 19.59063369
H 19.37859237 22.67790618 22.17752594
O 19.61956779 22.03148671 21.58615233
O 17.82137831 19.51432409 21.02392423
O 18.83654263 19.17565883 18.10025285
O 18.69260091 21.87992167 18.80360556
12
i = 0, time = 0.0, E = 0.0;
H 16.74678565 23.11328618 19.01068764
H 19.94409478 19.67442151 19.89606719
H 20.28525111 18.73457832 21.04558346
H 19.25248575 21.80341363 19.13262681
H 20.73902486 21.75750514 19.68265982
H 18.37641600 19.66215348 20.55859979
H 16.80438999 19.37124781 20.61585375
H 17.47812323 21.95169882 19.89257125
O 17.62930382 22.73253323 19.34567288
O 19.86613976 18.70972099 20.18542449
O 19.99959828 21.17819395 19.29064248
O 17.44756709 20.05846826 20.62354549
12
i = 0, time = 0.0, E = 0.0;
H 17.54318667 21.69331625 20.35887572
H 18.71686926 20.30554304 21.14220105
H 19.94196393 19.44036547 21.71561678
H 20.72828971 19.09432649 18.07909917
H 19.77759807 19.49224732 19.23929055
H 18.94097059 22.78562809 19.13329074
H 18.85759438 21.26778559 18.63790960
H 16.37127085 21.07903880 21.29703851
O 17.32616298 21.42690882 21.31001275
O 19.26338873 19.52301865 20.97527711
O 19.99338034 19.72707697 18.27696286
O 18.28084811 22.05924895 18.89760716
12
i = 0, time = 0.0, E = 0.0;
H 16.26984757 19.97899579 20.93082695
H 19.37117008 21.69299569 22.35954491
H 19.93164628 21.02360690 21.09203957
H 19.68920258 20.83954350 18.71676858
H 20.82392642 19.98670616 19.52375773
H 17.78486427 20.52291531 18.76298633
H 18.19904005 21.40719663 17.55319002
H 17.67719309 20.71603341 21.07103251
O 16.97839573 20.42225418 20.42121368
O 19.23599028 20.89915652 21.79089062
O 20.47407415 20.88481104 19.35993837
O 18.24656821 20.46641391 17.86218567
12
i = 0, time = 0.0, E = 0.0;
H 17.76667174 22.90491163 18.13943072
H 18.82291241 21.97408350 20.48748256
H 20.34749490 22.27530993 20.87485693
H 19.57322565 20.14932692 21.29891101
H 19.19370280 18.79091724 21.91722074
H 18.19117672 19.15889597 19.48660639
H 18.19929832 18.99731359 17.93774749
H 17.80060727 21.38755168 18.54022325
O 18.24103345 22.29551424 18.70721261
O 19.56799862 21.82780532 21.14107810
O 19.38641875 19.16254092 21.05536784
O 17.73024041 19.42014728 18.61421807
12
i = 0, time = 0.0, E = 0.0;
H 20.07804825 22.81262444 21.46587446
H 19.59751178 20.27178989 18.14430745
H 20.32609183 19.43065437 17.06903754
H 17.91070607 19.94153929 20.00418167
H 17.02212434 19.43910613 18.81423794
H 16.99388725 20.28906427 22.58287961
H 17.89012337 21.00185220 21.66218020
H 19.84689179 22.10503056 20.04849825
O 19.55160804 22.10499198 20.98810222
O 20.50881609 20.18388640 17.70552957
O 17.92704733 19.71724168 19.00222895
O 16.95269211 20.72172800 21.75216226
12
i = 0, time = 0.0, E = 0.0;
H 17.53714172 20.33122523 20.16283362
H 20.11141326 19.72901638 22.69121279
H 19.79882124 20.25312558 21.27460953
H 18.45083389 18.97252556 18.86196299
H 17.66452708 17.88510486 17.98868125
H 18.45380739 24.06576598 19.61414293
H 19.23655461 23.92020614 18.40035720
H 18.26658501 21.44129512 19.30019430
O 18.41447207 20.57576694 19.76070892
O 19.87919416 20.51809677 22.19218448
O 18.22160810 17.97742082 18.81872790
O 18.43406894 23.57424230 18.77073135
12
i = 0, time = 0.0, E = 0.0;
H 19.23323457 20.10942515 20.93475359
H 16.65936478 20.91766463 18.58885471
H 18.09266400 21.44694722 18.70801136
H 20.11467289 20.37330701 18.88765157
H 20.41266256 21.56099870 17.93958762
H 17.31271722 20.87499664 20.89890522
H 18.18114945 21.38517482 22.09957725
H 20.23083470 18.93595176 21.06450754
O 20.07563760 19.69358297 20.55107703
O 17.19541027 21.53363385 19.14284343
O 19.71453895 20.92154872 18.20069180
O 17.91854383 20.55937456 21.59558233
12
i = 0, time = 0.0, E = 0.0;
H 18.02741840 22.26591653 18.69217319
H 20.85296457 18.59538083 20.00343997
H 20.03602013 19.78911333 20.47896730
H 18.12361187 19.96841121 19.46324375
H 17.83906638 19.37703376 18.06577479
H 17.75645938 20.56973886 21.74155291