90
i = 0, time = 0.0, E = 0.0;
H 10.21966093 -0.16803821 2.19776472
H 8.77515634 0.28240689 2.58848024
H 8.84501972 1.34192588 7.11545539
H 3.29787265 2.40530386 -2.83660314
H 10.70129215 5.42753014 5.00917968
H 6.17508817 -2.52628555 2.00269303
H 9.05961232 1.87578484 5.62737044
H 7.81373695 3.35415133 1.57050337
H 10.62099729 3.11440160 5.01584049
H 9.05861517 4.40602783 8.17302652
H 2.51652317 3.18507605 -1.62886483
H 5.70441381 -1.16834217 2.40719790
H 8.74644117 -0.15262461 0.24925302
H 6.98375129 7.00929711 2.40714221
H 12.18236112 4.87632059 5.57944149
H 7.30605301 2.89056078 0.18265886
H 3.67083630 0.78684919 -1.22127308
H 10.56264012 3.18502787 1.12751396
H 10.17159216 5.57600833 2.77146799
H 4.51255268 3.64670881 0.49292025
H 10.58656214 2.65664657 3.50876494
H 10.40336649 4.54457873 7.36558853
H 6.95351261 5.88655104 3.55019918
H 9.10968430 6.41859156 3.67460212
H 5.78190919 3.80863014 -1.29350434
H 4.54454599 -0.04421665 -2.34864577
H 9.27120149 -1.06345797 -0.75909080
H 9.76169226 -0.64036209 5.24467981
H 6.56636721 3.72387167 5.97032207
H 8.74957127 2.81300745 3.80971584
H 12.89803650 1.85076787 1.81380932
H 7.13170347 5.21686212 5.85690936
H 4.37153945 3.71107424 2.01547867
H 4.30574289 4.06065249 -1.87819431
H 7.42616681 3.49963293 3.77452628
H 10.22558546 1.71775521 1.66267481
H 4.89452146 1.05777062 0.98814310
H 12.36023701 0.00829902 2.59093162
H 5.02604775 5.18016440 3.89958594
H 11.73737519 -0.95791849 3.70845453
H 5.42395130 5.58566275 2.35731570
H 7.09495643 -1.83590195 -0.37428520
H 7.90887813 7.35673541 6.27780214
H 6.12390425 0.77323792 1.45376489
H 10.82164903 0.46530069 5.04435335
H 2.72507207 2.84774087 0.64370515
H 9.23874723 4.82298417 0.36972522
H 7.37612456 0.98881735 -1.14596330
H 5.86198846 1.39231029 -1.37293856
H 8.60588191 6.31332884 7.34081262
H 5.75152346 -1.30450296 0.41037163
H 10.63918363 5.50893116 0.14427402
H 12.77078544 1.93512634 3.29582997
H 6.94249484 5.22710052 0.59519523
H 5.37914053 -2.06845656 -1.88177439
H 1.13996242 2.82356271 0.17060966
H 4.85888899 -2.70175370 -3.17644412
H 7.28862868 -1.25192585 3.77470330
H 5.94970497 6.06746718 -0.20968610
H 7.36106235 -0.21362259 4.93771986
O 2.95332986 3.33734955 -2.57535887
O 5.92109727 -2.04087729 2.80148880
O 8.42855042 1.91308198 6.38944916
O 9.45069236 0.29961392 1.82649083
O 10.59107279 2.30665620 4.41869185
O 11.23416488 4.69742452 5.54036665
O 7.40553871 6.72395510 3.29622562
O 7.77424924 3.70874011 0.59054299
O 8.47691901 -0.51200531 -0.58463052
O 9.93482839 4.82406998 8.22188675
O 10.01546915 5.97526559 3.68488081
O 10.96427079 2.41190552 1.57124039
O 6.44573523 4.55754833 5.50438195
O 4.21594983 0.85883314 -2.06592658
O 4.32422561 3.04805944 1.24766702
O 5.32027306 0.23412079 1.39486566
O 11.84755213 -0.85041587 2.74351679
O 7.95060026 2.85383014 3.25659779
O 4.81349686 5.03103815 2.91683886
O 5.05364539 4.43127672 -1.26329260
O 10.73404771 -0.39357678 5.45424578
O 6.68595726 1.67600150 -0.82780433
O 10.10363718 4.93914159 0.74792059
O 13.40584029 1.55478451 2.58806963
O 8.16011894 6.40569962 6.48202262
O 2.07388115 2.60543585 -0.09290256
O 6.22305791 -2.09192926 0.06312835
O 6.37314271 6.04131541 0.67452826
O 4.90938241 -1.85476425 -2.72766356
O 7.91313793 -0.60346088 4.17986067
90
i = 0, time = 0.0, E = 0.0;
H 7.52944000 -0.94062213 7.49726405
H 7.48359648 -2.49947604 7.47321963
H 7.69519154 1.29045657 7.94250811
H 5.10687300 -1.57120702 3.51579232
H 7.17420583 5.91011381 7.24157799
H 7.75934147 -4.71128474 8.12708057
H 8.67199201 0.39041184 8.75152539
H 4.49514706 2.98721025 6.56638894
H 4.85427891 -0.53948714 8.60247332
H 1.73317953 -0.96717784 9.72148640
H 4.51921731 -0.05663127 3.45361317
H 6.54221471 -3.90408601 8.80099776
H 4.21065247 -0.91685581 6.44949705
H 4.18438073 2.86278053 9.17844245
H 8.23925726 6.88445642 6.54170542
H 4.33320992 1.41760821 6.41128483
H 4.44920282 1.84237738 4.34843579
H 3.35604763 6.38210126 8.07671402
H 5.40206418 4.30303558 8.14695165
H 2.31359771 2.46825946 5.17019410
H 5.57404822 -0.33674524 9.91477957
H 3.12531538 -0.72235038 10.37357100
H 4.25026693 4.21416319 9.96084895
H 6.37732632 4.00154308 7.09127447
H -1.04593609 -3.02975422 3.51923699
H 3.36323860 1.95219632 3.18529303
H 5.77210044 -1.02770682 6.98934434
H 3.19900724 -1.75572442 4.64795036
H 0.44348460 -0.75479562 7.97426910
H 7.34301872 -2.73458108 3.69553497
H 9.41467953 4.96306019 6.63475931
H -0.21205055 -1.34842971 9.33558194
H 0.87220379 2.90129355 4.66171900
H 0.10071174 -1.97870418 3.62418141
H 7.02269889 -1.97063845 4.96847617
H 3.80908150 5.34723326 7.01964711
H 2.36074253 -0.81606450 2.99193028
H 4.74267872 -2.60966208 9.39110862
H -1.30182657 3.64654720 6.08703952
H 4.30952413 -3.73406163 8.48934456
H 0.09070690 3.86571008 6.91275282
H 7.71735922 1.13908052 3.91931413
H 2.67340294 1.19533410 7.94940824
H 1.64547514 0.41915975 3.60362862
H 2.27085006 -2.54921185 5.70500543
H 0.59366073 -3.77741114 5.43577924
H 1.79756642 3.20555042 8.33011093
H 8.61955700 3.07686873 7.01713985
H 7.71742700 2.20640175 6.07680280
H 2.54183261 1.63857100 9.47975724
H 8.18859790 0.33702572 5.06116854
H 1.70866179 4.64999310 7.93498824
H 10.06571400 3.94039960 5.60337216
H 1.93911853 -0.36767344 6.25396494
H 6.63532592 -0.18683078 2.21725986
H 1.07663204 -4.18930497 6.84073122
H 6.06748844 1.26910830 2.41538533
H -0.14108936 1.43250630 11.08242568
H 1.42878550 1.12725484 6.21513025
H 0.85714169 0.23918444 11.38173699
O 4.31413540 -1.05077994 3.34903133
O 7.56339572 -3.82740286 8.56355864
O 7.81143288 0.33841788 8.30776373
O 7.28744815 -1.67958897 6.86194103
O 4.76261863 -0.81871053 9.58716534
O 8.11029288 6.00329684 7.01895405
O 4.77908706 3.52400292 9.59907005
O 4.14180743 2.28643496 5.98015517
O 4.97598042 -0.41382239 6.87288156
O 2.18252071 -0.63563735 10.56776023
O 5.63860833 4.68777935 7.24004550
O 2.99915737 5.58882903 7.55979226
O 0.51281957 -1.42559575 8.66097158
O 4.31131341 1.82850787 3.30188918
O 1.67008234 2.30006769 4.44983898
O 1.47992435 -0.39942524 3.08147052
O 4.94363117 -3.58923467 9.23675899
O 6.92701758 -1.87999030 3.99560605
O -0.32985781 3.71365347 5.98172624
O -0.22928473 -2.82327079 4.00685554
O 2.86381529 -1.72932569 5.63155004
O 7.72385141 2.71058597 7.01152525
O 1.08664128 3.91954948 8.20906045
O 10.00138454 4.13276743 6.56083726
O 3.03143766 1.83038650 8.66816536
O 1.41021411 -4.05008377 5.95008122
O 8.31030258 1.22973999 4.69397374
O 1.55324933 0.36480471 6.89030910
O 6.92073981 0.74101100 2.36381666
O -0.12549309 0.48055405 11.25062434
90
i = 0, time = 0.0, E = 0.0;
H 4.70021989 5.69641363 11.65113208
H 4.52706449 4.21750624 11.40170557
H 2.38667219 7.56837015 10.20807141
H 8.01892348 5.45810842 7.18470028
H 3.88765084 8.39311163 14.07446708
H 2.38514993 2.39049604 11.15801650
H 0.97807587 7.98106367 9.54868856
H 5.70020662 5.05440857 6.84883701
H 4.49966296 9.33926707 6.43318805
H 3.68131879 6.08259967 6.41826581
H 7.70882555 6.46960371 5.96527379
H 1.75060072 3.83453453 10.84386876
H 4.36349029 7.68924100 5.15811068
H 1.08555332 4.02474471 4.08719085
H 4.97022136 7.40609175 14.23267348
H 5.11215393 5.36712999 8.28394470
H 4.97822738 2.13007256 4.08980630
H 0.96883100 6.94062356 1.57727798
H -0.98036283 7.85200411 5.12097221
H 4.58818930 2.03553030 0.97255761
H 3.59340084 8.53428931 7.36244391
H 2.66831257 6.01483690 5.17831217
H 0.64291127 5.28513495 5.02517107
H -0.15712504 8.12473273 3.78471127
H 6.88527953 8.03888140 7.92260954
H 3.92651197 1.19799234 4.81082382
H 4.11780237 8.79319413 4.12182928
H 1.19300475 4.09343225 7.44139863
H 4.93393916 7.66323621 10.07703494
H 6.52773402 8.50555457 5.29751526
H 1.20556387 1.93153959 3.14797142
H 4.37367661 7.86239047 11.49059140
H 3.79976580 2.11812702 2.18680554
H 5.60379836 8.76299646 8.26824919
H 8.08668119 8.66214411 5.15075727
H 1.18163217 6.48753543 2.91638472
H 0.12731235 5.27395664 11.55517864
H 6.17972710 5.29087549 14.89547103
H 3.47209653 1.84207579 7.02651687
H 5.35120783 5.27254747 13.58153467
H 4.35104096 0.49759141 6.66109220
H 2.33199652 3.34333329 1.13973939
H 1.32318212 10.83661673 6.15402384
H 1.02039271 6.21926536 10.56204214
H 0.40501073 4.39771355 8.66525347
H 7.24142371 6.50394103 9.28304597
H 0.43515722 7.08208864 6.39948266
H 2.84785650 9.65575484 2.24150849
H 2.32354462 8.35123430 2.75796480
H 2.54047144 10.69572570 7.19709463
H 1.22745208 4.06043278 2.03780348
H -0.09974698 5.66039798 6.82891533
H 2.12568225 1.89192070 4.32517608
H 3.46362175 3.87293223 7.66238887
H 1.58728126 6.45736851 -0.93361149
H 7.20768558 5.19883186 10.18973867
H 1.61271143 5.23556132 0.13389606
H 0.59386061 9.52866495 7.83855255
H 2.69057257 3.09190336 8.78226612
H -0.71869100 8.78157569 7.78140746
O 7.66424667 5.52406602 6.27452662
O 2.54653004 3.22210316 10.71644174
O 1.39550761 7.68375559 10.40982261
O 5.19143381 4.84763227 11.80106680
O 4.14086893 9.34571584 7.40741929
O 4.72510912 8.19285391 13.67599590
O 1.22341607 4.99225997 4.23349527
O 4.86650640 5.06924621 7.36448243
O 4.79298651 8.54951041 4.84802078
O 3.29589531 6.58509717 5.68983846
O -0.62770646 8.56557719 4.55104211
O 1.00787830 7.34382959 2.47188138
O 4.19261149 7.35570295 10.65848751
O 4.24397799 1.55187501 3.91307678
O 3.68557224 2.25013500 1.21171909
O 0.65583402 5.20475061 10.72980629
O 5.32640209 5.58133343 14.49752360
O 7.37721766 8.37219387 5.78804214
O 3.49994708 0.97253067 6.51337392
O 6.22723040 8.06980194 8.66775195
O 0.26381902 4.35266509 7.70733382
O 2.97262778 9.07712386 2.98091607
O -0.07379760 6.28296406 6.07181618
O 1.22658812 2.23562099 4.05922833
O 1.56336742 10.77829452 7.11379141
O 7.69673938 5.60844550 9.44246169
O 1.41221739 3.73114691 1.12594956
O 2.69171989 3.16503068 7.80928891
O 1.58080647 6.24335251 0.03226252
O 0.20353065 8.65220580 8.06561584
90
i = 0, time = 0.0, E = 0.0;
H 2.54176383 6.88059032 6.15917746
H 1.04644665 6.99953278 6.23039000
H 2.70309514 4.60829809 5.45818014
H 5.70174693 6.95653209 0.73080884
H 7.39052798 9.17998249 4.66990120
H 5.08562168 3.08099342 4.79743675
H 2.43162584 3.54817768 4.30710381
H 7.56709639 7.53973941 -1.96279766
H 8.96602365 5.96781443 6.50666380
H 5.34355038 7.29169815 9.22243561
H 6.50223660 5.85415182 -0.04281906
H 5.50179494 3.72807175 6.06698991
H 4.74332241 8.37521817 1.87003582
H 5.75816957 9.85426422 5.72419759
H 7.09632511 8.13475352 5.89610673
H 6.95820104 6.71474190 -3.09379014
H 4.56971549 12.10640898 2.63150496
H 6.54321348 12.27921997 2.77710105
H 8.31460313 10.64061602 3.23465389
H 4.84685066 6.02567551 -2.10808539
H 8.04833073 5.95011024 5.11754349
H 4.09842350 7.89183204 8.45583691
H 4.29591702 10.51340419 6.16281887
H 8.68742902 9.11990487 2.73305242
H 3.23850898 7.99261134 0.01171858
H 5.14085286 11.76063094 4.13021689
H 5.39540189 9.05301765 0.60448396
H 0.51475697 4.87886729 5.72156540
H 2.60892642 8.78322875 6.85965461
H 4.74589778 5.99109927 5.20479215
H 5.08597956 10.96818166 0.51703987
H 2.45220649 9.65935408 8.19699696
H 3.72881750 5.06460494 -2.57630860
H 2.72967033 7.44956043 -1.33888402
H 4.34801721 7.00007688 4.13698648
H 7.76794850 13.01626601 2.19046208
H 3.85158357 3.01602309 2.64660108
H 4.91012318 5.66728627 7.77003375
H 2.60795766 10.96648729 1.21328934
H 3.76700527 4.59974523 7.92566436
H 3.15192586 12.37322170 0.76068867
H 9.77911396 7.74617453 0.82808207
H 4.47800725 9.21774818 4.35857625
H 3.60046889 1.48865100 3.19609376
H -0.96280512 5.44452752 5.80876803
H 4.79864393 5.18714046 1.61479041
H 1.52866618 9.52341897 1.75090464
H 6.87231689 4.54302405 3.95781008
H 6.90467399 5.57001349 2.73053583
H 3.45455351 8.33705734 3.42832811
H 8.24152442 7.59440562 1.06757672
H 1.85754091 9.42211318 0.12581681
H 6.51228400 11.05422528 1.04755237
H 1.67636285 6.65320274 0.36745535
H 8.15094121 9.33568811 -0.58577860
H 3.85300542 5.31573069 2.89895900
H 7.05527937 9.70385923 -1.53220383
H 1.64264067 7.38500231 2.36123821
H 1.69928735 5.49394348 1.40367404
H 1.80633219 7.60272503 3.97558797
O 6.43096097 6.27864712 0.90379774
O 5.86161999 3.44117355 5.16491683
O 2.02975574 3.96801824 5.14337260
O 1.82683614 7.47271033 5.87848794
O 8.26667504 6.43862380 5.94081093
O 6.93087402 9.05096702 5.53595777
O 4.81962136 10.30353293 5.35390185
O 7.11096190 6.67113730 -2.11931369
O 4.83583775 8.28988323 0.88002984
O 4.59049185 7.05816301 8.63164289
O 8.45493991 9.71418008 3.55307242
O 7.47751375 12.11039254 2.24140793
O 3.12906496 9.32371913 7.55683967
O 5.22679434 12.43555767 3.37263892
O 3.93991762 6.00992836 -2.47259309
O 3.70283435 2.44276206 3.47079596
O 4.55766042 4.83429875 7.39522429
O 4.06038718 6.04735915 4.48223648
O 3.41910834 11.64130691 1.35828205
O 2.42485751 7.99266834 -0.58540395
O -0.07880976 5.43548164 6.28367823
O 7.38883066 5.24203245 3.50590360
O 1.53154809 9.97467355 0.88355241
O 5.99391904 10.73419602 0.23171874
O 4.43997940 8.43783298 3.67268767
O 4.04365528 4.79558973 2.08530877
O 8.96839931 8.25931249 1.03978689
O 1.16736821 6.30508411 1.18469013
O 7.87131435 9.13940620 -1.51754225
O 1.82994589 8.04880592 3.04905026
90
i = 0, time = 0.0, E = 0.0;
H 2.32855246 -3.26894541 9.00234488
H 3.88441011 -3.65288061 9.22273111
H 6.05805482 0.56131222 7.99181889
H 7.78734317 -6.95063281 3.73210402
H 6.80962348 0.77559342 5.36665956
H 3.49504125 -5.27779708 7.55244243
H 7.56013720 0.31825833 7.86743489
H 1.08235302 -2.82897374 6.02858264
H 3.68129952 0.81685758 6.91937480
H 1.23334563 1.16798328 7.05039646
H 8.80341081 -6.36166886 4.89777073
H 4.37892199 -5.03234219 6.22739903
H 10.38240954 -5.67881637 6.17693029
H 3.34193975 -2.19589142 6.36782862
H 8.52912964 0.72702318 5.33375250
H 2.18086323 -3.81263145 6.47216865
H 6.52190084 -1.00012597 2.72621852
H 8.52977437 -0.01323439 2.30484410
H 3.85389869 -0.87400318 1.71654298
H 2.09507681 1.88481161 2.70656901
H 4.56442674 -0.21806990 6.24177654
H 1.88071365 1.82470268 8.23643113
H 4.48457676 -2.06793652 5.11451710
H 2.75419497 -2.00347758 1.31979191
H 5.64206058 -3.07479954 3.94415530
H 6.99594678 -1.25102842 1.29328664
H 8.92505457 -5.13781631 6.44648401
H 5.56937187 3.32784448 7.57082777
H 0.75827429 2.00266433 10.40157138
H 6.59716148 -5.35525232 4.53533031
H 10.14333368 2.00396129 5.04014382
H 2.17879882 1.57082225 10.70702261
H 3.20174965 1.27473170 2.00098216
H 4.72205207 -2.19405563 2.95856788
H 6.66641782 -4.22469961 5.48441514
H 9.82098909 -0.97013563 2.62994479
H 5.42658461 -2.55196759 7.27987107
H 8.20625646 -4.38123633 3.07502370
H 5.06321453 1.87671521 2.93035632
H 8.32076001 -3.89745023 1.62384302
H 5.52932579 1.15546483 1.56868202
H 6.28871902 -3.04061669 1.33339696
H 5.49588398 3.19584933 5.16791872
H 6.14417392 -1.78242833 8.39438080
H 6.66838173 4.30170278 8.17116941
H -0.85730698 -2.26276508 4.04119406
H 3.33715973 3.01878390 4.13810224
H 7.44383449 -3.24087862 7.02026516
H 8.41812667 -3.02404188 5.65032921
H 4.74868090 1.80587592 5.42593475
H 5.35345276 -2.50303510 0.20694404
H 2.13358247 3.30203925 5.14302159
H 9.86801145 0.81928690 3.87615267
H 0.11448284 -0.94466134 1.02176896
H 8.21871877 -1.04042148 5.05970126
H 0.40006745 -1.84417732 3.33105068
H 8.36280477 -2.14325888 3.86397828
H 0.87366367 1.03338741 4.86523790
H 1.13438397 -0.10772179 1.86588472
H 0.28935138 -0.42560797 5.06308811
O 8.26479978 -6.15440567 4.04143461
O 3.49645387 -5.30977872 6.55832620
O 6.82997832 0.18119792 8.52921596
O 2.99210399 -4.00018794 8.97696823
O 4.62045882 0.73939006 6.58082226
O 7.63965271 0.32922109 5.71372541
O 4.25758504 -1.89757251 6.09709717
O 1.84897161 -2.89413311 6.61243784
O 9.49268111 -6.01488326 6.29610636
O 2.01177865 1.74185601 7.26377394
O 3.65520168 -1.83935946 1.59454166
O 9.56126841 -0.05444614 2.41996507
O 1.68510664 2.16120964 10.09088841
O 6.93955817 -0.52518732 1.95944708
O 2.23107712 1.17185324 2.03512131
O 6.05444216 -2.72678665 8.03289354
O 8.09467365 -3.57537905 2.55293854
O 6.02278992 -4.63210089 4.84467769
O 4.76724686 1.46939481 2.08829088
O 5.27751729 -2.14766943 3.75355081
O 6.43499655 3.76277690 7.42792020
O 7.99085257 -3.71614166 6.36690469
O 2.33305718 2.99784863 4.21935729
O 9.89150284 1.05747605 4.90850179
O 5.22292652 2.37226664 4.68518128
O 0.08248625 -1.92380957 4.27590861
O 6.27379874 -2.68872008 0.42837519
O 0.77719944 -1.03724575 1.73055046
O 8.74271539 -1.86253558 4.73951373
O 0.33973645 0.48958230 5.46729653
90
i = 0, time = 0.0, E = 0.0;
H 2.39991667 6.21269772 10.39933849
H 1.73919085 4.87837209 10.80914555
H 1.31051813 7.35594946 8.50980089
H -1.23802434 0.25937846 7.55997103
H -3.15250574 4.08499952 4.21931870
H -2.50496200 4.81253843 9.23129313
H 1.96964294 8.37106016 9.57365880
H -0.92048974 3.64717308 3.86318758
H -0.28561430 7.04807254 6.12340372
H -2.65541529 10.03458729 7.03015098
H -0.53333616 1.58597595 7.31231315
H -1.19149155 4.03817091 9.97913643
H -0.59574965 3.77012296 7.99705445
H -6.48146932 6.90411889 2.83620965
H -4.67355282 4.47696197 4.29508629
H -0.69913500 3.58419965 5.49990606
H 1.16374676 0.27898567 7.95850785
H -4.52652666 5.46566026 2.50621402
H -3.75641828 8.05429993 2.99649268
H -7.08017194 3.97190394 4.75574507
H 1.16717334 6.62215657 6.35502134
H -2.43265585 10.39818548 5.56154701
H -6.61743407 7.40415595 4.37969442
H -4.04722909 8.00732708 4.55784707
H -2.79538587 2.38937208 9.06920222
H 2.25425781 -0.60367357 8.63198647
H 0.88633783 3.59111415 7.31837507
H -2.76808651 6.57342434 7.51621508
H -1.24771735 9.18532868 8.71080327
H 3.59037557 4.68791487 9.60424660
H -1.62026285 5.62411265 5.29168146
H -0.41480306 8.31312022 9.68647651
H -6.62969304 5.43007156 4.64572100
H -3.78163336 1.19802639 9.46680998
H 4.94777383 4.49416609 8.89555932
H -5.71448424 5.40017311 1.55359091
H 0.19944221 3.39493234 11.85883933
H -0.22454346 10.42314384 6.49449590
H -6.12712215 7.93529239 6.58772876
H 0.34479478 9.03443165 7.00701579
H -5.06236740 8.95314062 6.14861483
H 3.94990736 2.75167696 7.82380815
H -1.42780655 9.48004158 3.65125613
H 0.08016034 4.97693262 12.01659548
H -2.32596555 7.10990109 8.83896534
H 0.56723525 1.42931621 13.36203916
H -6.74448622 6.48486983 7.73773688
H 2.62539459 4.66081421 6.01685344
H 2.90996090 5.35749119 7.35089218
H -0.10363620 9.72088109 4.10674840
H 3.39899133 1.26802037 7.68570223
H -7.56989560 7.76534903 8.18254813
H -2.20748528 7.05372920 4.90359808
H -1.73339437 0.53264048 10.49815870
H 3.40206458 2.93640091 5.79563672
H -0.56911984 1.28709882 12.33928945
H 2.35788761 2.89829978 4.69150137
H -4.82040903 5.34764581 7.95872317
H -0.14851181 0.61147300 10.52170743
H -5.91086290 4.95819899 6.85173100
O -0.30037334 0.63431097 7.48479733
O -2.01564448 3.92543632 9.38718001
O 1.52153959 7.52688557 9.46920179
O 2.60857961 5.33736649 10.81594185
O 0.62538411 7.43146593 6.41162221
O -3.91077466 4.54945033 3.69054025
O -7.00260487 6.74512639 3.69778313
O -1.30489022 3.86852504 4.72647296
O -0.08563943 3.41162329 7.17111690
O -3.12872911 10.42861806 6.27345692
O -3.31461392 8.12456513 3.88028807
O -4.92695707 5.98180271 1.72565151
O -1.36862605 8.44534476 9.34199836
O 2.15728317 0.20303835 8.15071221
O -6.42620377 4.56731511 5.18474830
O 0.05982027 4.26416461 11.35348338
O -0.11174466 9.87834317 7.35056818
O 3.97456075 4.46797732 8.68016214
O -5.55636194 8.17243584 5.75391956
O -2.95912268 1.41273746 9.00679840
O -2.96211148 6.37847958 8.50219616
O 2.15785823 5.17202718 6.74389457
O -7.24258107 7.32333334 7.39083817
O -1.70588051 6.54492564 5.64471413
O -0.97603878 10.20393837 4.17528079
O -0.05806507 1.99698585 12.87230277
O 3.85167520 1.99850495 7.18940076
O -0.89450030 0.22708632 11.03583660
O 3.06375700 3.50638985 5.05008343
O -5.78099138 5.07717248 7.82103488
90
i = 0, time = 0.0, E = 0.0;
H 9.64729267 3.53790926 4.85815778
H 8.52372819 2.45841230 4.79512107
H 7.68088952 7.01110675 7.12609201
H 9.16787464 5.79132618 -0.00657656
H 6.65872392 11.19030382 8.48669316
H 6.22475908 1.76199855 4.93286963
H 6.72183132 5.79823129 6.68071294
H 6.32804520 10.16345377 1.76543302
H 9.24866303 8.54336644 7.51808939
H 5.73363946 7.82171710 7.73107805
H 9.64464270 7.17341430 0.58240157
H 6.41670957 3.30916215 4.58192877
H 7.06162355 7.47876573 3.19273765
H 3.43623543 9.81162001 5.12817504
H 7.48608730 10.38896564 9.47098564
H 6.38533573 9.53118063 3.30333542
H 7.97625245 10.40313331 3.63563867
H 11.08974599 9.77731246 6.72450991
H 6.35922393 8.70703145 9.82131126
H 2.75835974 11.70848723 3.08708299
H 9.61099578 7.04162686 7.95267323
H 4.48485560 8.67601310 7.86085546
H 4.77085963 9.17329415 5.37849157
H 7.90749876 8.40092628 9.50719545
H 3.85947407 8.66752567 1.43145455
H 8.95230230 11.48865340 4.34284034
H 6.76004450 7.59942582 4.86657701
H 3.90503844 6.40923407 4.75268850
H 7.82512677 3.89240602 7.31239910
H 8.60236251 5.98502888 2.98706990
H 8.85034085 10.45641691 7.63579247
H 6.54639543 3.36855886 6.59855903
H 1.77093853 10.59126196 3.25995975
H 3.72450806 10.12990832 1.96991276
H 8.00105480 6.18301757 1.52649480
H 12.49305224 10.36846142 6.72101727
H 6.39141003 4.94173179 3.03356068
H 9.72812601 2.59358524 6.79996180
H 0.22121663 8.89764548 3.64761131
H 9.50687607 2.64046147 8.37804877
H -0.33787315 9.97741999 4.61064538
H 9.98540061 9.33529076 3.93003823
H 3.81810166 5.89587724 6.83651566
H 5.06239465 4.96431755 3.67930123
H 4.96284130 7.01354546 3.76858226
H 11.31495701 6.32011381 2.19640879
H 1.65783776 7.50247733 4.41538299
H 11.24150246 5.70593505 7.34583600
H 10.17777018 4.68836846 7.55185936
H 3.41162689 7.43692147 6.20909616
H 11.21951370 8.71236200 4.56317278
H 1.53272821 7.13207543 2.97658188
H 8.88767827 10.03763360 6.02021307
H 2.60731094 6.66263032 1.10004185
H 9.64529409 5.96651054 5.23199359
H 11.25255814 7.72817392 2.10126014
H 9.94638300 7.10939138 4.21604043
H 4.25123145 5.93080135 8.78798359
H 3.46716658 6.88561281 2.52902254
H 5.51684419 4.94172742 8.31404137
O 8.83608341 6.57550704 0.39441288
O 6.86355764 2.48636423 4.96256091
O 6.90674735 6.82285975 6.53472767
O 9.49672968 2.58284199 5.13196105
O 8.96391552 7.76488013 8.09340384
O 7.59977982 10.96112713 8.63589571
O 3.84819810 9.11390979 5.69358243
O 6.70877517 10.28634598 2.68879012
O 6.45883684 7.88132002 3.92781902
O 5.15401366 8.26245218 8.46633427
O 7.29762240 8.85386403 10.12746072
O 12.00735767 9.61524343 6.37424397
O 6.87839710 4.08913335 7.21253064
O 8.77935847 10.49862079 4.29634254
O 2.72267322 10.80744439 3.36260815
O 5.82992087 4.29658646 3.48992148
O 10.05216094 2.99159247 7.64939185
O 7.68657170 6.06826227 2.48401763
O -0.08007263 9.85907964 3.64822768
O 4.26803279 9.59018456 1.36451199
O 4.17008458 6.37698992 3.72412898
O 10.27717207 5.59446064 7.18568785
O 0.93508133 7.29531589 3.77307716
O 9.38318190 9.94069864 6.90125732
O 3.36407165 6.43819786 6.15127083
O 11.23121889 6.98083947 1.48808701
O 10.63232784 8.55687444 3.77146536
O 2.89001950 7.37028704 1.77990509
O 9.67659322 6.17580611 4.25750909
O 4.49392449 5.18369386 8.15199570
90
i = 0, time = 0.0, E = 0.0;
H 10.00299102 4.33986727 -2.70876349
H 8.80149163 3.75439213 -3.35670554
H 6.65207648 -0.18108171 -1.16716480
H 8.99595159 6.57486325 -3.96760314
H 7.14963540 4.20434280 1.44346716
H 9.67559847 4.97950037 -5.04588816
H 8.24158887 0.08156529 -1.48022682
H 6.35180030 4.87841993 -1.71505401
H 6.99197278 1.66320238 1.17178476
H 3.92144812 -2.76505981 -1.33850567
H 7.45683975 6.12210831 -3.59730832
H 11.14704300 5.07507542 -4.48331025
H 8.94272925 3.27143515 -1.23450004
H 3.51667211 4.64181840 -0.31992290
H 6.43925060 5.55405833 1.22992321
H 4.83260081 5.32730870 -1.95106697
H 8.31342435 8.63734091 -1.05850894
H 7.05134498 0.48261675 5.21815773
H 4.88048268 6.74956741 -0.10164660
H 5.10088877 2.82833605 0.24087679
H 7.49569374 2.64664529 0.10112895
H 5.07627695 -3.49838924 -0.60011177
H 2.30771981 5.69328710 -0.39816448
H 6.37361087 7.26630468 -0.31422882
H 5.62824177 2.96910286 -4.40859118
H 7.97333529 7.65165958 -2.27987521
H 9.86081880 3.26682529 -0.04488735
H 5.55704776 -3.77646835 -4.74344086
H 2.85058298 -1.54076412 -2.96209498
H 11.89310362 4.04492707 -2.01631596
H 7.36619675 0.45530488 2.68362577
H 3.82306451 -2.77488748 -3.52354496
H 3.66782005 2.15700765 -0.20500218
H 5.12724290 4.34886378 -4.83779891
H 11.61123877 2.82716520 -3.11923504
H 7.05495991 1.92561076 4.60243455
H 8.49762617 2.87157020 -5.64405696
H 9.41673130 1.22527530 -0.28257783
H 6.26524380 1.42329572 -2.47816185
H 9.45189686 -0.11886875 0.38173701
H 5.37432888 2.78051764 -2.04818368
H 8.53858468 6.04797059 1.08384536
H 4.63207050 -0.12946075 -0.04071193
H 7.20383404 3.86443846 -5.21323930
H 5.91719138 -2.31659510 -4.75153953
H 10.99669413 0.58950915 -1.85393623
H 2.33899122 -0.29627891 0.08559423
H 11.40879880 4.46592444 0.98661568
H 10.50449806 5.12584697 0.01521627
H 5.11196991 -1.52465950 -0.17499568
H 8.75790751 6.80085767 -0.25502192
H 2.99690357 0.25463154 -1.29347824
H 6.51051456 -0.05578687 1.48612500
H 4.16956020 0.81356268 -2.71671398
H 6.59326954 2.86909143 2.85981618
H 10.74379586 0.38988714 -3.37156197
H 6.61943797 4.24488605 3.44639290
H 6.87344854 -0.12130474 -4.96863111
H 2.75880102 0.96590385 -3.42271458
H 7.06392850 -0.72284348 -3.51571702
O 8.06031458 6.89602641 -3.82440931
O 10.31310399 5.57335756 -4.67803420
O 7.31897840 0.07700753 -1.89853938
O 9.06571846 4.10575363 -2.46230220
O 6.71698580 2.59272902 0.76046830
O 7.18319355 5.14488175 1.80351388
O 3.21561339 5.51781412 -0.76403160
O 5.66961252 5.15397098 -2.40844339
O 9.06180508 2.76994464 -0.31967394
O 4.28338393 -2.97570161 -0.40369473
O 5.76830468 6.87367825 0.36679883
O 7.31004527 0.96950980 4.40855843
O 3.10942928 -2.48310284 -2.87040672
O 7.72939373 7.86114625 -1.26781004
O 4.20831644 2.96286624 -0.20925405
O 8.25305104 3.63623818 -5.14262308
O 9.69476665 0.27559978 -0.49555014
O 11.80792518 3.81166946 -2.97276089
O 5.63577541 2.17026375 -2.81052054
O 5.72008235 3.63092727 -5.12825134
O 5.25559776 -2.96005596 -4.37313255
O 11.09834146 4.34122532 0.05953073
O 2.77548671 0.46086888 -0.31516148
O 7.37955207 0.29798853 1.69254970
O 5.47165596 -0.58889082 0.09219490
O 11.04863726 1.06732999 -2.73085434
O 9.25742944 6.38146364 0.48755649
O 3.34743958 0.32080912 -2.98300218
O 6.39004114 3.28976838 3.72106895
O 7.10934493 -0.95389271 -4.47429206
90
i = 0, time = 0.0, E = 0.0;
H 8.22596933 2.05837086 5.36636275
H 8.34260881 0.37607137 5.18401927
H 8.63881241 4.11314312 5.60420601
H 12.72132413 -1.57448080 -0.02247840
H 2.64614993 4.68275546 5.34198275
H 10.86363610 -0.64366319 4.69818643
H 7.25058869 3.63172944 6.11699549
H 7.96270644 1.95697787 -0.34568060
H 10.10638311 5.00729403 4.56809273
H 7.24077920 -0.55375713 7.24592396
H 11.46431518 -1.74130451 -0.78313818
H 10.26829094 -1.67694229 3.77262292
H 9.64003125 1.34208517 3.61652551
H 3.87624135 -0.24369192 2.99262251
H 3.28010257 6.02648167 5.30702730
H 9.36404368 2.17480376 0.25149944
H 5.27507168 1.68759282 -0.71096632
H 7.94446836 4.40699628 0.21584352
H 0.57467977 3.60316751 4.14224067
H 3.29369996 0.78948116 -1.39943369
H 9.66328470 6.25056388 5.44486943
H 6.65793498 1.06228033 7.03847210
H 4.93960872 0.83786827 3.15464495
H 1.65544643 3.12952217 3.43732179
H 4.96334165 -0.70591610 -0.01069757
H 6.12534031 2.95305228 -0.61814535
H 10.33818444 0.50016815 2.45308702
H 9.00371144 -1.98887720 5.75161576
H 6.72042979 -1.77447661 4.94620378
H 12.73492983 2.62037522 4.18367222
H 5.37594630 4.69179818 1.46162681
H 7.05047870 -1.97478967 3.45834917
H 3.05953515 1.36233475 -0.00673967
H 4.82921905 -1.68204666 1.10519791
H 11.62432509 2.07268011 3.21311326
H 7.46681677 4.40221638 -1.25034782
H 9.25680236 -1.55074930 1.55137098
H 4.88823656 4.77510018 5.66974317
H 3.13963409 3.47561704 1.02539664
H 4.94639536 3.40850780 5.13993802
H 3.08653601 2.12371122 1.87146194
H 9.80789661 0.04085065 -1.65108539
H 4.47159695 1.02761370 6.20408650
H 10.71726028 -2.03906071 1.20462828
H 8.87095591 -2.22994377 7.19296098
H 6.87758529 -1.13386234 0.53222671
H 6.30529871 4.41930381 3.74799542
H 10.11974968 4.45868981 1.92443164
H 8.60327111 4.39422402 2.21889225
H 3.94137917 1.37704042 4.78131543
H 9.49774335 -1.34031386 -2.35104294
H 6.71403611 3.31926554 2.53736570
H 5.08282946 5.33847136 0.24675073
H 6.86510733 0.68328570 2.20062363
H 12.00128676 4.03570942 3.22330850
H 7.91605591 0.07451368 0.43243186
H 11.93815197 5.53101533 3.56508766
H 4.85632525 -1.85514195 3.32500795
H 7.21438580 1.39924317 3.63983447
H 4.09361629 -3.06517129 2.68535316
O 11.93619712 -2.15469875 -0.00634954
O 10.45533443 -1.52158830 4.71886802
O 8.22954638 3.37384454 6.10343651
O 8.47720847 1.26668083 4.74731947
O 9.33787202 5.39021454 5.05743813
O 3.23770038 5.30188805 5.88803430
O 3.93565102 0.74534434 3.03532171
O 8.91623477 1.64526710 -0.47189050
O 10.49683991 1.16828591 3.13462585
O 6.60461976 0.09306755 6.74369560
O 1.52626972 3.68976285 4.24923223
O 7.09297654 4.38155560 -0.34036102
O 6.27386691 -1.72166221 4.06801667
O 6.20971471 1.99212671 -0.80540932
O 3.64051318 0.75372658 -0.51237908
O 10.16749734 -1.61114537 1.91645016
O 5.58813895 4.15438374 5.36935202
O 12.51167892 2.61628661 3.24341498
O 2.53300543 2.76986813 1.34277204
O 5.35484654 -1.51701304 0.30383294
O 8.32740435 -1.91203930 6.44401823
O 9.25662712 4.05705564 1.54283537
O 6.66816330 4.29269302 2.77617493
O 4.54763062 4.88929676 0.92204668
O 4.05498791 1.76620328 5.70434439
O 7.55988968 -0.58411517 1.05926943
O 10.23692645 -0.78107936 -1.98946125
O 6.64545939 1.46660091 2.85104700
O 11.33952284 4.84089300 3.30918153
O 4.16156873 -2.09925294 2.64793311
90
i = 0, time = 0.0, E = 0.0;
H 1.20852509 1.92972390 8.62034183
H 2.56436243 0.99635199 8.65811143
H -0.34087109 2.77252304 7.37701476
H 9.92158463 4.19319438 5.85034229
H 4.72096567 3.67293620 9.01608005
H 7.65911103 1.38127716 5.79574601
H -0.91323753 1.80613726 8.46418966
H 6.06699165 6.18983811 4.57590625
H 5.83302530 2.22863812 9.27598536
H 2.56794676 3.96770046 6.31525258
H 9.08930912 3.54643782 7.06950275
H 6.64328797 1.57270246 6.94519607
H 5.94954644 5.12095885 7.56888129
H -0.35606524 6.90929766 2.21259226
H 3.68384467 2.57595827 9.47516908
H 5.69557047 5.76436069 3.20820211
H 6.59750000 9.15762291 2.26618937
H 2.74904443 8.10671284 4.88926490
H -0.87437484 8.38917650 3.87917587
H 1.09786792 5.47841515 2.20149784
H 6.25338953 0.82937063 9.16033262
H 2.33069298 2.73013760 7.34284247
H -0.84018570 5.71879189 1.11361712