54
i = 0, time = 0.0, E = 0.0;
H 16.09613278 17.31766244 17.49977940
H 20.45452481 18.45692779 17.52706443
H 21.95303993 18.74144098 17.09730766
H 18.96693726 16.68606295 21.04527486
H 17.87511161 17.81058298 21.01125515
H 17.27679339 23.03093351 21.20999470
H 16.88696020 23.13646139 19.77062291
H 16.43883145 18.14412137 19.86506430
H 16.56381035 19.34196634 20.77318155
H 19.26016333 24.60565160 19.05706553
H 18.72784440 25.99403475 19.11639877
H 21.47396433 22.42403346 20.19372614
H 21.96044814 21.17107792 20.93666286
H 18.56867985 19.03723354 15.61121451
H 18.47805472 20.42233244 16.47994484
H 22.88666376 18.45384146 20.89886391
H 21.59175228 19.03315084 20.04151767
H 18.91203398 18.90150619 22.58994943
H 17.68279584 19.43274674 23.33132350
H 17.87850621 23.92009767 17.75356368
H 16.73877947 23.08069973 17.06126822
H 23.04177730 19.32726486 18.81705334
H 24.22917481 19.39523695 17.80556455
H 19.89991827 19.95285841 19.54410190
H 19.54848600 18.53998575 20.15647468
H 22.74626339 16.12234680 20.96764859
H 23.12660889 16.72088122 19.72231195
H 19.95136928 22.16799921 21.75672560
H 18.79749908 21.48144005 22.60541160
H 23.12950317 21.32496693 18.30153041
H 22.01763463 22.18478139 17.75289623
H 22.72165084 15.60543308 17.49591325
H 21.98092921 16.99473587 17.71962416
H 18.84886567 21.38089086 20.26225634
H 18.17766586 21.53660337 18.82539983
H 17.35033504 18.27318544 17.51552837
O 16.86420766 17.59245847 18.05429082
O 21.11485672 18.22301575 16.85191156
O 18.83235408 17.63339208 21.27623786
O 16.65700161 23.50817126 20.63009608
O 16.38161788 18.38162219 20.81875262
O 18.87112079 25.26437743 18.49431071
O 21.44235838 22.01130325 21.10616806
O 18.02253196 19.61163548 16.19662292
O 22.57073724 19.23926706 20.41702579
O 18.53801045 19.69009999 22.96815152
O 17.51014876 23.00772538 17.61499426
O 23.24957749 19.60219621 17.85368019
O 20.18301375 18.99412147 19.48971614
O 23.44574001 16.66185830 20.66960926
O 18.93286767 22.24131580 21.99101028
O 22.47536578 22.01899864 18.56111454
O 22.48652492 16.25959551 18.23253830
O 18.35026584 20.91015486 19.57199316
54
i = 0, time = 0.0, E = 0.0;
H 18.23815094 17.96054474 17.17070407
H 21.72614223 18.16881287 16.52983461
H 21.17559407 19.28785508 17.38622429
H 17.19583344 16.95499463 21.75995808
H 17.90668501 17.96900582 20.91198412
H 19.65015478 22.57641850 19.43855627
H 19.93575958 23.85206714 18.46615829
H 17.84516031 18.14505153 19.04279120
H 17.04247626 19.36638371 19.93453748
H 21.80829534 25.23161006 17.86472025
H 22.17507861 24.63102998 19.23856155
H 20.82517750 20.61785487 21.02008949
H 21.86448194 21.17499444 19.81667627
H 18.08996848 22.58311021 18.24091622
H 16.81705683 22.31233939 17.33005025
H 21.95436462 16.72391708 19.87406378
H 23.35710069 16.97413701 20.60788877
H 19.79728856 18.38476313 21.81518129
H 21.29606870 18.37778065 21.23130755
H 17.45756557 24.33618946 21.36963275
H 16.98196007 23.61859013 20.15237397
H 23.22028437 20.11844006 18.01030609
H 23.32065641 19.30637472 19.24818861
H 19.47542782 20.80234367 17.65440136
H 18.92450080 19.74769527 18.57261016
H 19.53702428 16.30159234 20.32388129
H 20.04102690 17.27669215 19.31000485
H 18.37940803 20.52699263 22.35291540
H 17.63445144 21.89303259 21.89601670
H 23.74569210 23.19798518 20.75510402
H 22.22366400 22.68539969 21.05716863
H 20.73286941 15.81040617 17.85954035
H 21.42761356 15.21580565 16.55092974
H 16.37430240 20.70559601 21.04043062
H 16.03936109 21.14154339 19.48457733
H 18.93997338 16.66742427 17.39251053
O 18.01950752 16.99225479 17.57207788
O 22.00033833 18.90850820 17.05848541
O 18.08885320 17.28297655 21.64201372
O 19.57576709 22.86278739 18.49235356
O 17.88220053 18.91790310 19.69306018
O 21.36816215 24.89459978 18.68878718
O 21.10555840 21.43623080 20.40421350
O 17.11040440 22.32154674 18.24478717
O 22.63019885 17.40185123 20.10204660
O 20.48394073 18.93787632 21.44735774
O 17.66253894 23.53250630 20.87378349
O 23.35228783 20.25463343 18.98365987
O 19.27756570 19.83325533 17.66836265
O 20.33153154 16.40696372 19.73112473
O 17.50462691 20.97273887 22.29568917
O 22.78904441 23.42014211 20.67368491
O 20.85590452 15.98758432 16.85218054
O 15.83208837 20.45585148 20.21129295
54
i = 0, time = 0.0, E = 0.0;
H 16.53197126 15.38047246 18.67949152
H 21.09477650 20.94919216 17.97901676
H 22.58059629 20.66392561 17.55766516
H 17.82990218 16.55193677 21.73317526
H 17.14718223 17.96982088 21.58186199
H 19.33675006 24.62024766 19.99221098
H 20.58875388 24.03717044 19.26345317
H 16.38720422 17.49545272 19.69945155
H 16.20337002 18.95068353 20.05588852
H 22.06164232 23.25638460 17.85886626
H 22.81479844 23.14310329 19.18480591
H 20.72768263 20.83226863 21.94171066
H 20.73899804 20.71448827 20.26067683
H 20.92705045 19.26423625 15.17387928
H 20.60252979 19.95981789 16.50978296
H 21.41936338 17.76413457 19.76360855
H 22.89350623 17.31678290 20.25998214
H 18.98612058 18.65203736 23.15533218
H 18.76873913 20.10245962 22.75552285
H 17.53399707 22.36318167 17.05110599
H 18.22056276 23.09234233 18.36746318
H 23.20784059 19.20537906 19.15359755
H 23.99221054 20.65016353 19.27494113
H 19.07104625 20.57522090 19.36165744
H 19.83020611 19.20210366 19.14620323
H 19.08752360 17.20127807 18.83905871
H 19.23095975 17.45219623 20.52218326
H 17.88144572 22.82247908 21.18747069
H 19.20657713 22.02774921 21.38833778
H 23.79632507 23.05570511 20.71443046
H 22.53222823 21.95858921 20.79931072
H 18.65551601 16.73923918 16.07344099
H 19.50086444 17.88318483 16.71145368
H 17.15253584 20.98753339 20.40938454
H 17.18720381 21.18759618 18.90326347
H 17.65686864 16.21907443 17.92807018
O 17.30059677 16.03361203 18.82923403
O 21.73844310 21.15206231 17.26051324
O 17.96091925 17.54006519 21.95645510
O 19.59184903 24.01018876 19.31009314
O 15.91094978 18.05879476 20.39568925
O 22.17813540 23.79768597 18.63334084
O 20.80471763 21.32030287 21.10049564
O 20.23608923 19.21887324 15.90622430
O 22.30827525 18.08305884 20.04764402
O 19.37413539 19.57323814 23.32244842
O 17.39667226 22.61665293 18.00858650
O 23.72801017 19.87506922 18.64973017
O 19.94595762 20.27085797 19.09834013
O 19.63824338 17.53690044 19.58618578
O 18.26161913 22.06612823 21.69956719
O 23.39340956 22.25494864 20.40880708
O 19.04930059 17.00886966 16.89642711
O 17.16482439 20.42792280 19.61798671
54
i = 0, time = 0.0, E = 0.0;
H 16.68124415 17.74627452 16.06045946
H 21.68486162 20.33742857 16.86703058
H 21.13530651 20.25169381 15.35559650
H 20.08143694 16.60817937 20.79369253
H 18.60795168 17.05935583 20.64905604
H 18.42214886 23.39790064 22.38889177
H 18.82485947 23.92873084 20.99804449
H 17.61339070 17.80289711 18.31231114
H 17.12051841 18.51296856 19.57339080
H 20.20356973 25.79235864 19.60165176
H 20.91129585 24.37741920 19.62350129
H 21.38754874 19.45688173 22.10418729
H 21.58176776 20.00343633 20.62503314
H 19.32077617 20.18954675 16.76466085
H 18.09796786 20.15044298 18.01264718
H 23.75008429 17.78332859 18.09001425
H 23.51404641 17.97629152 19.62820613
H 19.80624958 18.47201389 23.89565343
H 19.42914520 17.96482311 22.35658485
H 16.56125547 22.60088230 17.56248875
H 17.60552908 23.73533287 17.98512384
H 23.10767978 20.21191720 18.30427310
H 22.35403182 21.53393966 18.71645770
H 19.34575094 21.39060988 19.54253236
H 19.19319016 21.93739539 20.88497095
H 21.30603123 15.64741770 19.18761870
H 21.02880642 17.10364854 18.58013358
H 17.60750033 20.51758261 23.67494333
H 18.76108157 19.91612719 22.77249161
H 21.14427800 21.89050396 20.35765642
H 22.60071033 22.35304362 20.76992679
H 19.77368786 17.24119463 16.68239659
H 20.66454278 18.47770679 16.82458302
H 17.61318110 20.70543929 20.68340664
H 16.81475914 21.43487252 19.62108977
H 17.89082178 18.58075547 16.53116110
O 17.62119099 17.59976783 16.44546346
O 20.85549951 19.99747902 16.27859866
O 19.24993499 16.90570513 21.34777920
O 18.13449207 23.41596568 21.45360154
O 17.54122090 17.65331841 19.34853279
O 20.03981046 24.85553593 19.79825045
O 22.08092265 19.80072810 21.40812738
O 18.34775404 19.98903334 17.03518023
O 23.81167003 18.44488307 18.79723452
O 19.83702515 18.68166114 22.94496322
O 16.84969853 23.20905956 18.32321582
O 22.64012154 21.00787922 17.86360231
O 19.74002251 21.27409428 20.44903333
O 21.36004587 16.59944774 19.41275989
O 18.06837322 20.67367078 22.81143930
O 21.92147129 22.49363165 20.08810781
O 20.66245740 17.49741909 17.03684962
O 17.21022018 20.56685016 19.81294550
54
i = 0, time = 0.0, E = 0.0;
H 18.58295951 16.56496281 17.48663702
H 21.08414891 20.14342286 16.39942560
H 20.19051969 20.42758165 15.16171823
H 20.49042624 15.95212364 21.90199061
H 19.56206580 16.88278201 20.97376793
H 17.75862548 21.62304043 22.22051997
H 18.41625993 22.74751862 21.24540437
H 18.06632989 16.73409147 19.72747442
H 17.95056479 18.01594300 20.60109651
H 18.76917310 25.21447778 19.24260595
H 20.02559876 24.25069498 19.41163219
H 21.04129900 21.26841121 22.68482435
H 20.90598353 21.34889784 21.13213738
H 18.75157576 19.77328648 16.64658475
H 17.53469827 20.64753561 17.19481347
H 24.30673303 19.48618480 19.33475643
H 22.81775502 18.91977758 18.91898516
H 20.63205747 17.98994543 22.53696214
H 21.18433437 18.53939908 23.90108080
H 17.98254476 23.15999810 18.70795169
H 16.93654984 22.14874544 19.13358544
H 23.00252903 20.73300854 17.41755284
H 21.74566480 21.43867116 17.71482391
H 19.20610216 21.43720348 18.67526453
H 20.31486705 22.21787401 19.27768309
H 21.02642423 17.45305165 19.59180541
H 20.74155545 18.97776484 19.21762413
H 17.58333889 19.55141384 23.25146008
H 19.12656201 19.73838452 23.17840385
H 22.17574698 23.04268133 20.08970320
H 22.44595462 23.89680358 18.85402088
H 20.74047296 17.44958478 17.51550491
H 20.26958917 17.81066450 16.19557999
H 17.73526968 20.65452040 20.32179911
H 17.72231978 19.59996129 19.12577584
H 17.42190174 17.47159876 17.77622361
O 17.74840905 16.62911498 18.08815923
O 20.25553307 19.87509746 15.95362748
O 20.51339356 16.66445253 21.26170258
O 17.63310673 22.11323744 21.37792700
O 18.25079310 17.06366946 20.67877298
O 19.10004137 24.31611141 19.11690415
O 21.32033532 21.84398763 21.89619408
O 17.85731242 19.70514574 17.10225911
O 23.55802723 19.59367734 18.69435426
O 20.78300754 18.83517847 22.99228625
O 17.59439623 22.32326969 18.44141596
O 22.31392613 21.28290301 16.93410337
O 20.07166138 21.29020374 19.04989471
O 21.23114039 18.18273816 18.96826789
O 18.28077898 20.25184825 23.43637435
O 21.78466059 23.81340550 19.58457436
O 20.11645489 17.09880333 16.87827868
O 17.38874864 19.76932014 20.05030454
54
i = 0, time = 0.0, E = 0.0;
H 19.18448163 17.68187049 17.16317106
H 21.49965378 20.93492594 18.23673038
H 20.46240059 20.07375854 19.29163613
H 18.70741955 16.54657067 21.70089031
H 17.29824481 17.20015037 21.12512727
H 19.58993521 25.06237125 17.73970693
H 20.56949940 24.11557048 18.60915128
H 17.16631310 17.03229108 19.15622497
H 16.15117032 17.91754891 19.68157164
H 21.99625537 24.01608722 20.26858651
H 22.44987719 22.56421900 19.90983456
H 19.85767648 20.58012247 22.90715738
H 20.69947320 21.63701195 23.66030095
H 17.59822422 20.94128890 16.14550118
H 18.46619673 19.65605972 16.14284200
H 24.56295884 18.13855288 19.41211814
H 23.12504723 18.43209411 18.75969496
H 18.46740769 18.65676097 22.93598412
H 17.77994876 19.38771485 24.10346330
H 19.03609291 21.51843893 18.08818442
H 18.40197241 22.87935667 18.50011223
H 23.58793768 20.32019445 18.03570400
H 23.04608439 21.94604567 17.90272106
H 18.68810838 19.59202910 20.48700257
H 19.32704057 18.43159442 21.13673617
H 21.79441797 16.51859330 18.87413492
H 21.53033521 17.32162027 17.50613899
H 18.39340100 22.39977121 21.79337600
H 17.65991350 21.30224549 22.51383110
H 23.01188775 20.33045111 20.83901058
H 21.79602029 21.02873218 21.52743498
H 20.41058190 19.24188547 17.33787687
H 20.86893082 19.06121653 15.94456852
H 16.86281697 20.78919986 20.59869635
H 17.10992506 20.85370514 19.14737540
H 17.68308220 17.59449522 16.83908643
O 18.35758484 17.22370666 17.45861478
O 20.57933839 20.47508677 18.38454416
O 18.07902714 17.28901770 21.86918533
O 19.71091468 24.17768179 18.04493837
O 16.51224616 17.04850460 19.86673587
O 22.04293912 23.42356928 19.47637469
O 20.38536919 21.38365505 22.80116183
O 17.55004117 19.95728314 16.15695227
O 23.91973044 18.84951973 19.30784584
O 18.42921044 19.53405714 23.34051829
O 18.16933607 22.00490829 18.09032292
O 23.03087381 20.99881060 17.56528058
O 19.58427894 19.22815605 20.59547017
O 22.15618648 17.21729577 18.26107807
O 17.50671956 22.04013702 21.88585726
O 22.59851733 21.17168507 20.94566110
O 20.31238600 18.55642969 16.56302864
O 16.83971388 20.17393640 19.81279213
54
i = 0, time = 0.0, E = 0.0;
H 16.90718796 18.00107311 17.48386662
H 19.90672256 21.57165287 18.74569693
H 21.30332558 21.07216086 18.11906454
H 18.83896103 17.78152916 22.88248777
H 18.78070054 18.70247773 21.62271063
H 19.14803995 23.04958785 20.21875616
H 20.08936493 23.67070475 19.19325210
H 15.64022454 19.18060104 19.16632516
H 15.06738780 17.82660143 19.41975146
H 21.75298652 24.98940985 20.04253222
H 22.17242408 23.49887385 19.62596438
H 21.86984645 20.33052636 22.49351423
H 21.82152011 19.40907166 21.26754621
H 19.43480228 20.53306068 16.56017050
H 19.66038408 19.87238219 15.13875179
H 23.34380424 17.56519064 19.49795814
H 21.95889604 16.93099063 19.66271372
H 19.37135904 20.00743591 23.35919747
H 19.94703295 20.90073884 24.51283038
H 18.08421641 22.12336214 17.06793873
H 17.87777940 22.64991535 18.36717649
H 22.88364940 19.41123188 18.53954404
H 23.81971090 20.21455362 17.52874576
H 20.01313767 19.35820497 19.50139719
H 19.59925113 17.90236850 19.77934560
H 20.90058795 14.25829500 19.48110571
H 20.31036084 15.70168156 19.48005241
H 19.57809750 22.38591045 22.54560161
H 19.08484445 23.93997328 22.45137455
H 23.31105900 21.84775498 19.12546860
H 23.09163790 21.45481975 20.68812276
H 18.80479537 17.17061962 17.68426321
H 20.37078224 16.75930674 17.49553876
H 14.59450737 21.36615208 18.25919888
H 16.10018292 21.31392687 18.28470763
H 17.88110820 18.64277300 16.59551536
O 17.62632217 17.72818266 16.83041241
O 20.36131636 20.78503645 18.23564359
O 18.44891854 18.62945745 22.57984876
O 19.25835228 23.09082960 19.17064452
O 15.91273829 18.21454894 19.04687167
O 21.51017807 24.22833977 19.44022698
O 22.39992730 20.11212978 21.70998666
O 19.02773100 19.94681162 15.90040850
O 22.46417956 17.53745473 19.05399374
O 20.03134111 20.73920656 23.53071456
O 17.30735212 22.29327611 17.61167545
O 23.03872820 20.32952887 18.11267231
O 19.92875320 18.68737211 20.28972873
O 20.92580824 15.08895906 19.98315089
O 19.31698939 23.14343783 21.94655836
O 23.29041498 22.24558076 20.03947052
O 19.71088367 16.86789922 18.19654859
O 15.30024863 21.10489687 18.88222476
54
i = 0, time = 0.0, E = 0.0;
H 15.05647453 19.57522414 17.14864085
H 19.44064273 20.52000977 17.66664068
H 20.81839642 20.19219324 17.00611487
H 18.10453265 17.07078707 18.92931832
H 17.15420804 17.06723170 20.05319358
H 17.73866103 24.75108104 17.31384261
H 19.08602702 23.97082960 17.34058762
H 15.16717763 18.31813560 19.65096125
H 15.95738072 18.53160000 20.93620870
H 21.09301786 24.78174242 17.90820275
H 21.08031153 23.13758754 18.01276423
H 22.58923616 20.95630610 21.99102630
H 22.51714479 22.17519511 21.13126921
H 18.43825852 19.53052748 16.04088831
H 17.42178046 19.46121269 14.97666681
H 23.29930603 18.89068128 21.17679922
H 22.71255526 18.89921220 22.57438814
H 20.48111751 18.59539562 22.21062068
H 20.64433451 18.18931350 23.69065790
H 17.10360737 21.18746995 17.79234267
H 17.71488443 22.55025145 18.25862419
H 24.17790593 20.97154471 19.79319553
H 23.40803260 19.77215367 19.04848456
H 19.48089166 19.19490638 20.39144299
H 19.48802050 17.59544091 20.24975839
H 22.58913927 17.72058233 18.86357760
H 21.62821849 18.29820197 19.92805298
H 20.17453656 21.72177027 22.48173274
H 19.55807525 20.57542944 23.22896648
H 22.17609192 21.36356772 19.03265786
H 20.76391843 21.80999263 19.70852798
H 20.85282568 17.79082906 17.74313866
H 20.96170292 16.33426877 17.97439318
H 18.53167307 20.88142086 21.54250815
H 17.80726100 20.95541358 20.20390384
H 16.48298731 19.14881411 17.18774025
O 15.68860832 19.22227250 17.79685696
O 19.93272843 19.79158091 17.21402122
O 18.00830717 16.58329999 19.73475776
O 18.13683628 24.01631559 17.73362027
O 15.56236261 17.76791264 20.37122023
O 20.93322579 23.98485876 17.41974317
O 22.09216008 21.82153904 21.92986885
O 17.46505950 19.60340618 15.93692081
O 23.38271639 19.38159016 22.05893386
O 20.87851527 18.87736435 23.04711877
O 17.63192134 21.60636811 18.55919871
O 23.57417730 20.75841025 19.06030934
O 20.07472456 18.36940702 20.49487534
O 22.55589676 18.44246818 19.53115713
O 19.29663775 21.45309288 22.84891584
O 21.17706730 21.72048383 18.82208297
O 21.34614249 17.01741965 17.37808415
O 18.22518370 20.28639559 20.79322810
54
i = 0, time = 0.0, E = 0.0;
H 18.79148377 18.35377821 17.91261751
H 20.43131341 19.86526511 18.80666926
H 21.36468636 19.44243318 17.67297841
H 19.55649738 17.23822596 21.48017004
H 18.11493905 17.99553094 21.35870117
H 19.04363383 24.41883791 19.51573878
H 19.80099273 24.06372232 18.13640820
H 17.09872803 17.93193513 19.58903095
H 16.44027003 19.07810938 20.58656741
H 21.87425803 25.09363950 17.65968266
H 22.14909393 23.49962293 17.72140588
H 22.82146153 19.92820887 20.61720431
H 21.50566184 20.78059005 20.68025607
H 16.42004107 20.77728003 16.01494413
H 16.27864691 20.83828399 17.58917344
H 23.78328644 17.38080640 18.72746463
H 24.90268255 18.16912561 19.60063775
H 17.83767203 18.76484202 23.41568357
H 18.37660346 20.09654394 23.41498775
H 16.13083642 22.91392701 18.13951673
H 17.68143219 22.85169851 18.41483151
H 23.46190311 19.28159483 18.05901802
H 23.29216649 20.78672210 17.81445437
H 18.94170610 20.66351209 20.60512784
H 19.52790979 19.31103668 21.07977572
H 23.75161808 15.16016378 18.01815657
H 22.66769192 16.26830813 17.58288956
H 15.28853441 21.44453026 23.52892618
H 16.55782589 20.60225821 23.71633571
H 23.13426864 21.98598905 19.58309346
H 24.22239352 23.09023878 18.87501929
H 20.11244338 16.42783643 17.62168364
H 20.63120758 17.71624354 18.36389549
H 16.76874256 20.92706115 21.79155546
H 16.97066242 21.52533645 20.15940394
H 17.33080576 18.75434519 17.53787143
O 17.87499996 18.06040766 18.01884213
O 20.42482222 19.36474077 17.95063544
O 19.00491076 17.99623047 21.82152882
O 19.00663312 23.88748244 18.70676465
O 16.78725635 18.14497858 20.52907122
O 21.46187646 24.21577718 17.60934188
O 22.47654118 20.85019993 20.50194783
O 16.14583879 20.24007914 16.77412444
O 23.95883857 18.16332003 19.36624415
O 17.75468066 19.55577304 23.95381668
O 16.78404856 22.34072605 18.62351377
O 23.15179364 19.92062549 17.40002578
O 19.77262780 20.11282677 20.56089966
O 23.63566520 16.13271146 17.74435540
O 16.25488023 21.46755137 23.26592238
O 23.40691136 22.59475254 18.82145972
O 20.84150057 16.77194750 18.09211600
O 17.13252310 20.82475208 20.85144055
54
i = 0, time = 0.0, E = 0.0;
H 16.96745291 17.97404274 17.45038194
H 20.34619591 19.46765822 17.46460371
H 19.87997612 19.67058741 16.05097531
H 19.16474926 16.63500348 21.68832743
H 17.67802632 16.98959832 21.30427306
H 18.38092598 22.99478157 20.44623176
H 20.02242855 23.24937673 20.14636016
H 16.40932827 16.99251954 19.30343169
H 15.59543922 16.44086110 20.46311249
H 21.48594598 22.82348821 18.76278493
H 21.58163870 23.67815368 20.23383408
H 20.61280386 20.67252864 22.61370168
H 20.38362432 21.82108118 21.44608072
H 19.17701761 23.04250087 16.85049709
H 18.95588990 21.48928223 16.81180057
H 22.28813363 20.15204125 20.85764378
H 23.25492789 19.12049937 20.17740460
H 18.80892387 18.77281325 22.48767842
H 18.87054140 19.17275670 23.99046957
H 16.48534063 23.76099579 18.90854060
H 17.67640679 23.03005493 18.26160913
H 21.91572001 21.13455834 17.44339916
H 22.77777257 20.91694532 18.79220047
H 19.70413124 19.20769304 19.38476203
H 19.53461217 17.88662963 18.61714329
H 21.98256159 17.72220938 19.63272337
H 22.67831760 16.71767920 20.58074706
H 18.74677448 21.19881928 20.21728819
H 18.22812692 20.02297488 20.95545815
H 23.59533052 22.93053926 20.89829789
H 22.43133236 22.26654592 21.71952388
H 21.44836570 17.41727667 17.06466737
H 20.80450990 16.13908563 16.42983569
H 17.15084803 19.84439192 18.84993468
H 16.68272479 20.24487154 17.48854842
H 17.91594195 16.99404066 16.65537762
O 17.50298564 17.15241598 17.51730287
O 20.34268816 20.17475213 16.80176765
O 18.39909570 17.13982700 22.00566274
O 19.29669378 22.70110258 20.73242807
O 16.50409960 16.43727152 20.15437794
O 21.05145115 23.48858153 19.40771090
O 21.06969246 21.06465001 21.79966574
O 18.46610890 22.34487567 16.78805187
O 23.15893911 20.11073174 20.32992828
O 18.90448619 19.56025921 23.06735869
O 17.44898136 23.57623761 19.02923808
O 22.52333247 21.55405707 18.10749271
O 20.20523968 18.46680491 18.97587460
O 22.84531012 17.17311514 19.67120130
O 18.44712007 20.22704964 20.00144575
O 22.81737672 23.16890545 21.45118783
O 20.61301965 17.06595977 16.69548289
O 16.49654408 19.54276453 18.11523660
54
i = 0, time = 0.0, E = 0.0;
H 18.16998143 18.47675326 16.21578797
H 21.05103235 18.38038266 17.31398564
H 22.20528240 19.54934857 17.71556226
H 16.90751193 16.37687994 21.61059722
H 16.85939777 17.52083661 20.43594367
H 20.05173772 24.47318945 18.33685516
H 19.33607860 24.74259883 16.93140924
H 16.98855723 18.46892718 18.40198982
H 16.60218651 19.39263649 19.59506607
H 21.65349084 23.31548443 19.76865318
H 21.90535176 24.86644135 19.65714808
H 20.68754201 18.81875959 22.59057954
H 20.76592833 19.23130367 20.97798126
H 20.28273474 20.84770776 16.62126748
H 19.39235502 22.09735924 16.97087681
H 22.91422677 18.19671786 21.07928243
H 23.01909164 17.40159407 19.73670789
H 18.63924477 17.63622616 22.33791459
H 19.74446203 16.88792806 23.20005521
H 16.25799695 23.51548770 17.39059372
H 17.43540250 23.76745186 18.34533334
H 24.25804122 20.56211129 18.45089949
H 23.49477647 19.48669888 19.35513705
H 20.30365052 19.84098783 18.90887180
H 19.03322584 20.26008025 19.60281865
H 22.11106726 15.51087693 18.58439719
H 20.87727746 16.44598948 18.82933126
H 18.29901573 23.40158482 21.96786238
H 19.24984446 22.16856240 21.67647014
H 22.72811682 21.57544005 19.85197662
H 21.49297939 21.37014182 20.46064333
H 18.63095750 16.80095363 19.64025584
H 18.93871809 17.34984818 18.14668076
H 17.18949526 21.40826976 20.77007038
H 16.72826824 21.60842232 19.35742447
H 18.78407843 19.60074207 17.06443984
O 18.25734095 18.78114102 17.14261710
O 21.33287688 19.31431745 17.32121716
O 17.45914360 17.06545796 21.17012665
O 19.36816429 24.15284514 17.68727944
O 16.30752101 18.47168811 19.17298704
O 21.20691541 24.20710400 19.46722818
O 21.29978745 19.07057481 21.81803566
O 19.39034819 21.22743433 16.52204163
O 23.50983111 18.04378399 20.32120100
O 19.26028151 17.74126166 23.12471081
O 16.53294973 23.30741883 18.28436125
O 23.34618426 20.20030082 18.62121438
O 19.98370889 20.34931418 19.73168436
O 21.85302759 16.31357387 19.02956540
O 18.34976544 22.44435162 21.88818007
O 22.19250524 22.09287396 20.48645299
O 19.38172144 17.11796525 18.98655868
O 16.84900050 20.87407379 20.03653587
54
i = 0, time = 0.0, E = 0.0;
H 16.85277158 16.60331093 17.45826493
H 20.70073456 20.65905706 18.11400348
H 22.18862038 20.85121714 18.20735920
H 18.68023655 17.71718630 21.12584771
H 17.23424474 18.21943794 21.57796810
H 20.00856716 24.73549070 19.24921373
H 20.55580732 23.31029882 19.07547801
H 16.12250598 17.82756586 19.50514387
H 15.78831953 19.26761061 19.88555010
H 23.08935867 23.56799580 18.64946242
H 22.55071665 22.39155713 19.66125961
H 20.89517430 19.92634095 22.32662805
H 20.40918337 19.65498584 20.88950122
H 19.22559738 19.14234266 16.19109828
H 18.44380909 20.47298718 16.68563580
H 22.23873650 18.00441725 21.19881507
H 22.35973665 16.73307793 20.46707217
H 18.53331393 19.62668527 22.61421020
H 18.04876189 20.84085439 23.51520984
H 17.77817398 22.52436619 16.56589950
H 18.67309415 22.91635103 17.90263641
H 23.61643504 18.28394228 19.46531733
H 25.09076464 19.12022375 19.49056630
H 18.40016438 20.46818580 19.67581095
H 19.21634736 19.24759695 19.19251472
H 20.10919134 17.53582957 18.49217094
H 18.67108896 17.12540117 18.83102943
H 18.48523818 23.28217208 20.50646352
H 18.83419512 22.35089461 21.67321046
H 23.71908982 20.43648966 19.99721030
H 22.66386378 20.83000470 20.95785227
H 21.43905382 17.29829280 16.43229820
H 21.44417528 18.79376885 17.00961679
H 16.73094446 21.71396813 20.52979597
H 16.64693398 21.52130436 18.92357894
H 17.57183886 17.98824611 17.10313674
O 17.15475468 17.43690077 17.82814828
O 21.52018221 20.53628789 17.49351773
O 18.21475728 18.20022247 21.87334846
O 19.69018216 23.76736175 19.13761811
O 15.82634490 18.37090657 20.29517129
O 22.27275052 23.17750106 19.06183531
O 21.19496535 19.62481261 21.47232559
O 18.33305388 19.60007856 16.19549983
O 22.90189014 17.47623072 20.74527796
O 18.77093331 20.54658676 22.91946449
O 17.93382338 22.32213289 17.53193339
O 24.27601995 18.93879486 19.01565413
O 19.29314424 20.17838161 19.38500094
O 19.49283293 17.43956649 19.26946769
O 18.08507617 22.91589425 21.36379503
O 23.37941907 21.28386637 20.44878823
O 20.87691839 17.95122626 16.93995151
O 16.66228078 21.03174212 19.75669929
54
i = 0, time = 0.0, E = 0.0;
H 17.17680911 17.33720196 18.27664754
H 20.62777327 20.32995278 18.09336204
H 21.54871964 20.12600569 16.83246670
H 19.35068668 16.66188952 21.34148997
H 17.94350367 17.14515100 20.90821654
H 18.64586873 25.03434950 17.86518537
H 19.51046525 23.72523992 18.10896377
H 15.77027069 18.08388007 19.50449527
H 16.73777426 19.26743288 19.69105320
H 21.28821240 22.56418866 17.86832318
H 21.63284153 23.42516213 19.14867813
H 21.27362148 20.63493900 22.74944088
H 21.04867925 20.56876340 21.06343229
H 19.11119522 19.55140920 16.48802875
H 17.87785609 20.44391425 16.39438053
H 23.97456532 18.57825869 20.49639674
H 23.33102674 19.43329254 19.45186230
H 19.12000952 18.37866025 22.44893377
H 19.23717841 18.84239048 23.95556655
H 16.28362757 22.32441330 16.76891139
H 17.60944674 22.94459014 17.21851077
H 23.90049926 21.99466280 18.07388327
H 23.65920333 21.86731723 19.61843987
H 19.05337703 20.32189772 19.93325601
H 20.08758536 19.15798210 20.19909229
H 21.71551917 17.81583438 20.13288355
H 20.70448518 17.06713938 19.24247138
H 17.09943907 21.65504102 23.43328780
H 18.45481374 20.73370904 22.95338587
H 23.08605884 23.72846809 21.30198262
H 22.36865103 22.30286413 21.45905999
H 19.35150425 16.67590886 17.80769251
H 20.38445791 15.43605123 17.83322243
H 17.13899493 21.31361748 20.48304874
H 17.33900271 21.33674664 18.88566995
H 17.68554096 17.58183469 16.90115221
O 17.73278417 16.83808032 17.62019777
O 20.68429217 20.51971846 17.14746110
O 18.45333344 16.78786240 21.66877267
O 18.62799192 24.06652189 17.79114753
O 16.72661459 18.25866789 19.65457171
O 21.12506188 23.43272674 18.30499132
O 21.64774911 20.96911772 21.89436072
O 18.14131680 19.50480659 16.15272255
O 23.21773400 18.54332019 19.89679144
O 19.31201053 19.13797820 23.05530607
O 17.02602563 22.11461689 17.35746495
O 23.81819353 21.30164919 18.77009229
O 20.08327606 20.11834800 19.87982232
O 20.80616338 17.38756655 20.19368833
O 17.84289586 21.48145217 22.76754720
O 22.91036975 22.90612542 20.79880987
O 20.34792145 16.42308224 17.82375644
O 17.49451660 20.79259555 19.71745730
54
i = 0, time = 0.0, E = 0.0;
H 16.89304231 18.67237937 17.50875403
H 19.96556416 20.32455853 17.57252536
H 20.63317431 20.69492511 16.25371065
H 19.89779760 16.99139043 19.99292624
H 18.78931544 17.90664442 20.62654583
H 17.41441290 23.23561023 21.06126509
H 18.45430054 24.26262787 20.75134979
H 16.85953961 18.15772693 20.00381837
H 17.27084918 19.57418825 20.15828889
H 20.50067516 24.60014371 20.71371559
H 21.05760457 23.34504131 19.85676548
H 21.54863003 19.00916691 22.65314675
H 21.10980506 20.45203635 21.98946902
H 18.05617860 20.32352976 16.20027856
H 16.79072641 21.00337314 16.61305851
H 22.71498437 19.58768674 20.60346610
H 22.81394541 18.22233030 19.91197035
H 20.75823003 17.16697836 22.13443961
H 20.87165173 16.79098246 23.73522642
H 18.97767014 23.32719539 18.43348341
H 18.85267744 22.47647754 17.05257142
H 22.65288616 20.13233451 18.36515306
H 23.86343429 20.65437885 17.54599992
H 19.96882030 20.90396634 19.89658961
H 20.18592847 19.29775771 19.93456115
H 23.02279469 15.62655758 18.18619262
H 21.48769683 15.98583325 18.22913267
H 19.76110289 22.36409736 21.48699320
H 18.58095563 21.41290326 21.75580965
H 22.31776339 23.66352972 17.95787942
H 22.48430441 22.18680492 18.38275186
H 18.51992951 16.21592534 17.92582520
H 18.61852843 14.83681879 18.54374765
H 15.84990428 21.94489821 19.57982210
H 17.45587158 21.95446333 19.20723115
H 15.97909764 17.48966276 17.23235399
O 16.52066095 17.87736330 17.95980305
O 19.83069329 20.80703685 16.72962637
O 19.74685574 17.55702022 20.78362345
O 17.60177517 24.19474591 21.22497066
O 17.26862979 18.74725454 20.66348618
O 20.24882987 23.77526197 20.19646525
O 21.89225731 19.82644673 22.13686895
O 17.08827522 20.19734375 16.21265813
O 23.14442994 19.11814938 19.80500539
O 21.34280164 17.18592327 22.95121768
O 18.34477493 22.86636905 17.80482530
O 22.89990818 20.54823420 17.49079087
O 20.06509722 20.11193743 19.34962283
O 22.33900379 16.20037760 18.62768791
O 19.55877660 21.46570008 21.73210654
O 22.24961048 23.06648895 18.73384151
O 19.07171834 15.67816834 18.53881339
O 16.79356957 21.58692885 19.86075884
54
i = 0, time = 0.0, E = 0.0;
H 16.74105982 17.63758240 16.73776074
H 20.98641124 18.42008526 17.39882136
H 21.87793784 19.82431651 17.36940154
H 17.43201691 16.38056675 22.87135833
H 17.17176000 17.05195703 21.57006885
H 18.60068159 24.93372914 17.15396316
H 19.64161834 23.93001428 17.88334359
H 16.38176360 17.24258401 19.25708483
H 16.23365575 18.40414520 20.29492150
H 20.33044816 21.64897683 17.77099269
H 21.34951714 22.27070489 18.76542570
H 20.61674997 20.23722549 21.50607176
H 20.46033030 21.74045830 21.89771168
H 19.27713624 19.96840680 17.84943665
H 17.80875114 20.18413739 18.63106791
H 24.14348512 19.40311001 19.78890117
H 25.62093448 19.53442754 19.89050328
H 18.26108647 18.76411670 23.06745120
H 19.62885669 19.54791796 23.15848039
H 16.62190561 22.23187276 17.63702161
H 17.44997986 23.40975867 18.29947780