36
i = 0, time = 0.0, E = 0.0;
H 18.75092165 21.56812523 19.03876306
H 19.96181391 18.72635354 18.62806137
H 21.59606742 18.59418672 18.73104013
H 18.32947103 17.05942862 18.06437987
H 17.67237839 17.96236334 19.14780684
H 23.78705372 21.26042659 19.41409912
H 23.69635191 20.68387705 17.97704997
H 17.08529021 19.99767762 19.10221217
H 16.54763412 19.41487111 20.47450634
H 22.63787937 23.55974436 19.41397898
H 21.88855175 22.44830750 20.03759287
H 20.00164859 21.29911063 22.80606474
H 20.33712571 20.05871381 22.06022312
H 20.54949759 20.63144501 19.26248988
H 19.92027102 21.32922772 20.45197579
H 22.13508341 18.83835886 20.73593945
H 20.80240372 18.12914032 21.41842919
H 18.93957958 17.05422604 20.89407781
H 19.44439466 16.61043343 22.18841033
H 17.95562551 19.95797951 22.39707317
H 17.21319396 18.50620261 22.10535493
H 23.03387550 17.15171221 18.75454936
H 23.50597472 18.78158964 19.04202971
H 17.56495455 22.41356663 18.49291364
O 17.70601611 21.66896509 19.10919072
O 20.76171119 19.26394169 18.43509006
O 18.41520139 17.26593997 19.03094403
O 24.01154267 20.41201447 18.89798173
O 16.65176171 19.16950196 19.51905870
O 22.82202043 22.72832027 19.88452675
O 19.59545262 20.76493238 22.08319538
O 20.36385380 21.53530345 19.61109821
O 21.55167879 18.82407479 21.54815919
O 19.27190583 17.42913929 21.71275089
O 17.05248390 19.48650354 22.25531986
O 22.86705994 18.04356534 19.15059664
36
i = 0, time = 0.0, E = 0.0;
H 18.85450676 20.60452448 17.98880688
H 18.28729267 18.14378629 18.05373988
H 19.68227036 18.32984725 18.75500894
H 15.98420073 17.15358436 19.11513533
H 16.43137908 18.53379589 19.35786695
H 24.25818080 22.19232078 19.97334806
H 24.20758793 20.80129723 19.62815010
H 16.89719502 20.83824140 19.40024783
H 16.92866180 20.31451209 20.89298463
H 23.44271319 20.26215976 17.37143638
H 22.87208280 19.27467397 18.43988164
H 20.40301347 22.61897673 22.76387089
H 20.85599976 21.71057932 21.51577035
H 20.61287611 20.49794682 20.03843325
H 21.85278219 21.05123294 19.31361976
H 21.94665345 18.74195466 21.95654112
H 20.55945354 17.85679570 21.49440525
H 18.25080296 17.72427783 20.68676413
H 18.67385322 18.65699093 21.85195102
H 19.26507501 20.78014571 22.94400154
H 17.88041310 20.58453275 23.68527387
H 21.99162215 17.72614754 19.89324878
H 22.60029287 17.02354720 18.48596605
H 18.94984880 21.96589763 18.48666713
O 18.29919361 21.42106019 17.94512050
O 19.11288142 18.62788712 18.01121733
O 16.79644973 17.62029466 19.38637154
O 24.64385683 21.34819928 20.28763838
O 16.29805716 20.37188373 20.11054363
O 23.14242164 20.23044218 18.34120947
O 20.66501829 21.68923391 22.51956943
O 21.07084984 21.28120711 19.90922487
O 21.53611826 17.96157883 21.50186801
O 18.98754444 17.83826215 21.34166142
O 18.36931217 20.29562654 22.87146353
O 22.25409342 17.82142707 18.92041014
36
i = 0, time = 0.0, E = 0.0;
H 18.34213518 20.30302313 22.23593373
H 19.52919207 20.81475263 16.58842286
H 20.77494811 20.19157888 17.18365839
H 18.93945622 18.61514127 18.06691023
H 18.10429641 18.10546533 19.28075104
H 22.59583691 22.22318656 19.24204028
H 24.15780333 21.82806291 19.36502091
H 17.09685168 19.27291507 21.02926346
H 15.86365949 18.35734652 20.41304736
H 20.84591823 22.69653871 20.16961964
H 21.43315424 24.19070808 20.05367700
H 19.34872468 18.39424739 22.82504320
H 20.32323739 19.59294398 22.42635583
H 19.73024185 21.22020460 19.00308348
H 20.51584662 20.70402638 20.21808586
H 22.45845364 20.03608967 21.07895111
H 21.47137616 18.69951826 20.79530010
H 20.27264832 17.50521230 19.69347867
H 20.15185792 17.01134554 21.00269345
H 18.23693672 15.93640444 21.74378270
H 17.85287070 17.42399423 21.52150363
H 22.97074880 19.29097362 17.02524165
H 23.06761034 20.46396645 18.01389221
H 18.52210159 20.96501431 20.84806032
O 17.80351311 20.64009782 21.51331098
O 19.79401245 20.21935578 17.29681947
O 18.88106840 17.86094428 18.71023302
O 23.43564870 21.87169650 18.66676381
O 16.74900587 18.32929455 20.82420757
O 21.66484517 23.25694099 20.08337489
O 19.53712774 19.37662820 22.97581970
O 19.79598177 21.35810268 19.94469006
O 21.51740666 19.70206287 21.09742905
O 20.86166941 17.32311468 20.44817998
O 18.59096215 16.87588555 21.93837145
O 22.48677147 19.66431889 17.79007327
36
i = 0, time = 0.0, E = 0.0;
H 17.29905046 21.24224099 21.64282782
H 21.86025317 18.25032295 19.08804421
H 22.46610922 19.68946472 19.49234502
H 19.26754867 17.20632113 17.73316585
H 19.00572699 17.93261280 19.04565352
H 23.48816620 23.35604832 17.99469473
H 22.88061446 22.03222331 17.46197749
H 16.86521459 19.89894564 20.08944659
H 15.96081538 18.55147919 19.96062743
H 20.66204202 21.66747457 17.67560783
H 21.00205969 22.49020588 16.36975212
H 17.86488078 18.66161460 21.62418537
H 19.39604756 19.16263928 21.96717336
H 20.22673970 20.77871399 19.08752648
H 19.06687044 20.55106283 18.14312722
H 21.15686931 18.93834384 21.18248040
H 21.21903727 17.81801082 22.18469022
H 20.97235706 16.06001193 20.51083710
H 21.12636005 15.48155398 21.85988494
H 16.33680658 19.75069736 24.50107041
H 17.52076613 19.10866535 23.59541659
H 24.22529032 20.95692835 20.35361593
H 23.87753638 21.33964370 18.89642852
H 17.25949021 22.19389857 20.31257984
O 16.76511340 21.49698990 20.87198074
O 21.64434607 19.17197072 19.20427966
O 19.71465293 17.41610591 18.56101337
O 23.75662031 22.49436851 17.60230214
O 16.85310847 18.94930508 19.87719603
O 21.34249948 22.21298413 17.23620981
O 18.37645359 19.36172870 22.09583458
O 19.48051765 21.28509626 18.69481468
O 20.91315499 18.70371795 22.11227227
O 21.66189153 16.00461611 21.21238783
O 16.77377169 18.89437271 24.19800681
O 23.93664204 20.53277248 19.56316303
36
i = 0, time = 0.0, E = 0.0;
H 17.15718272 20.61898354 18.87832708
H 19.67496157 19.34887449 17.42622598
H 20.72266910 20.19855039 18.04086234
H 19.47718523 15.34965813 20.18189926
H 18.73154765 16.70360850 20.42089964
H 23.31939868 22.26921289 17.83666144
H 23.33864513 21.97188519 19.34150191
H 17.13891451 18.56222736 19.42531148
H 17.15301917 18.36123252 20.89644019
H 20.68219275 23.18736853 19.95871254
H 20.54597040 22.99983371 21.48291486
H 20.29602855 19.57978576 21.42402195
H 20.56001498 21.22162114 20.98818447
H 18.82850689 21.33370314 18.42346271
H 18.81379071 20.94921497 19.90835837
H 24.28518391 19.74094670 21.22064404
H 24.60440088 18.30398893 20.63647109
H 20.65097463 17.33498415 21.70773621
H 21.97829122 18.22369990 21.82035401
H 18.24233584 19.76291925 22.51794543
H 17.79756821 18.48328161 23.25371453
H 22.86894238 19.22150747 19.44393528
H 22.87170237 20.14937886 18.22473877
H 16.62991396 19.67122976 17.52053178
O 16.54842019 19.98662276 18.41984837
O 19.86437338 20.28041436 17.55344966
O 19.35681783 16.05577495 20.88617888
O 23.81907033 21.74769730 18.50989935
O 17.34664626 17.85254442 20.08698101
O 21.04816620 22.67296110 20.73929769
O 19.94910913 20.42628629 21.20273892
O 18.32546943 21.58564575 19.25670013
O 23.87476807 18.90863252 20.78948261
O 21.06902419 18.15875425 22.09294209
O 17.41852489 19.34392288 22.98893232
O 22.26051172 19.47777008 18.68998721
36
i = 0, time = 0.0, E = 0.0;
H 16.21780809 21.52961708 20.20220808
H 20.06840281 18.94048257 18.30894796
H 21.61935801 19.21057948 18.52577834
H 18.92548081 16.84262301 17.78170787
H 17.76367082 17.66469556 18.47258837
H 23.04736477 23.01708815 20.30934263
H 22.16821204 22.93211793 19.11661205
H 16.70068912 19.52725506 19.21803473
H 15.79209935 18.78965510 18.13562158
H 20.55817927 21.49979414 17.41990760
H 20.28811729 22.93151434 16.81438876
H 21.88161883 19.22599035 23.01951834
H 21.38451188 19.16556336 24.47219613
H 20.03772079 21.00306887 19.52854509
H 19.89443539 22.11913373 20.59044397
H 22.89394764 17.37147928 21.66007283
H 21.38876697 17.61034999 21.39142305
H 19.50681132 17.07698554 20.13590152
H 19.57663550 17.68326525 21.52481302
H 18.89045499 20.06830840 21.62952375
H 19.69150150 19.44001818 22.94108848
H 23.16747874 19.19054782 20.08733449
H 22.99186472 20.56497436 19.58043575
H 17.54208481 20.88648959 20.65721543
O 16.59737382 20.64178915 20.45475382
O 20.75183876 19.65011379 18.18340577
O 18.69806247 17.30687846 18.59616927
O 22.56104029 22.36408356 19.77690091
O 16.69184935 18.90965523 18.34603548
O 20.44759077 22.45355146 17.64377486
O 21.28944358 19.71075202 23.66027180
O 19.56552986 21.23135020 20.37247306
O 22.27324532 18.10700404 21.57382954
O 20.06208599 17.07350687 20.98520847
O 18.91479311 19.29956767 22.32270645
O 23.30350943 19.70190558 19.26664766
36
i = 0, time = 0.0, E = 0.0;
H 17.24223956 22.78718123 19.32429375
H 19.10096817 18.65520572 18.40102841
H 20.58581598 19.30432661 18.07065604
H 17.64738440 16.39173081 19.25762107
H 17.46214844 17.55824927 20.26970026
H 23.02470132 21.30001117 19.44465438
H 21.72222331 21.89106520 19.00140695
H 16.78111031 17.98357305 22.49579133
H 16.93744298 19.22810053 21.52651036
H 20.21155571 22.37912616 20.27227765
H 20.68605394 23.74942689 20.91410303
H 22.88487907 18.84082886 21.18552855
H 23.10963224 20.06125487 22.24068430
H 19.83007811 20.08391832 20.06166150
H 20.94764167 20.30401521 21.21539907
H 23.45442497 16.80623624 20.23383136
H 21.88996157 16.82325449 20.47969382
H 19.68373977 16.77807986 20.07349268
H 20.13416894 15.87384518 21.22503145
H 18.74067172 20.68128162 21.66692452
H 17.43726632 21.64033888 21.67715873
H 22.47993787 18.66269784 18.59539915
H 22.65705644 19.90472140 17.92850396
H 18.40879150 23.49732978 20.16446804
O 17.47119497 23.15590586 20.18040026
O 19.68962094 19.46727072 18.46682384
O 18.06423962 17.21557466 19.44137130
O 22.54744222 21.54077674 18.62150299
O 16.81539677 18.24851384 21.56583434
O 20.39175717 23.32650254 20.06304269
O 22.70785246 19.81838215 21.38313141
O 20.07823259 20.66880115 20.82268656
O 22.73387454 17.39309549 20.50471879
O 20.36350566 16.09266294 20.29013052
O 17.72982386 20.71688979 21.90541750
O 22.49646901 19.00145962 17.67236361
36
i = 0, time = 0.0, E = 0.0;
H 17.19769832 21.14380878 20.48060795
H 19.53215623 19.13614987 18.27035603
H 20.81968049 19.82686134 18.94786238
H 18.72948256 16.54828396 18.11188800
H 17.64724542 17.43264482 19.03600810
H 25.53078007 21.68028786 18.61178101
H 24.01006381 22.06493596 18.63821647
H 16.40762762 18.93086635 19.89375801
H 16.79302419 17.79719141 20.92264894
H 22.05735198 22.22167909 17.38584548
H 21.82412212 23.49864114 18.09115432
H 20.28973453 20.09464724 22.13621782
H 19.55764476 20.79226637 23.38434569
H 18.88924649 21.38995780 18.96224508
H 19.37654667 22.06043974 20.19057716
H 22.61930983 19.56592959 20.64753469
H 21.22593663 18.72780485 20.73940277
H 20.02735875 17.15262369 19.81354968
H 20.35197901 16.47718242 21.17626926
H 17.84695355 17.72156458 23.57840699
H 18.45241681 18.69129601 22.53905218
H 24.41097822 19.18401278 21.02219849
H 24.40646299 20.04316313 19.83650877
H 16.48662515 20.37471065 21.79349369
O 16.38997227 20.60577824 20.79325934
O 20.06308483 19.97250825 18.32946128
O 18.58390878 17.40446398 18.58610533
O 24.72622541 21.70276414 19.20915137
O 16.43102469 17.88665515 19.95759625
O 22.55992847 22.99677953 17.67163021
O 19.57187442 20.02480389 22.78306755
O 18.55446231 21.99373956 19.68808536
O 21.58282973 19.62807084 20.72649810
O 20.74782519 17.09140357 20.48234608
O 17.65780575 18.14563749 22.67876948
O 24.13033883 19.10684304 20.10696060
36
i = 0, time = 0.0, E = 0.0;
H 15.81794099 21.61284869 18.94369938
H 19.14036281 19.09839359 17.84741130
H 20.51446994 19.67526319 18.16028870
H 17.98621380 17.93365710 19.67286537
H 18.41576135 16.52782931 18.94936409
H 22.48969270 20.01053970 19.83170240
H 22.81349703 21.51131917 19.91371261
H 16.69575041 19.65755436 20.22429856
H 17.66263121 18.97635859 21.41569610
H 20.57152869 23.03564885 19.76656116
H 21.43084157 24.34155546 20.00981026
H 20.53663955 22.07028443 22.00667940
H 21.39390858 20.99438119 21.30164247
H 19.29845235 21.52821384 18.80820595
H 19.26668384 21.58815825 20.33207703
H 22.06170221 17.03100436 20.79658782
H 23.59662199 16.41958969 20.58157498
H 19.97796325 17.01713999 20.24165154
H 20.05417125 17.73756368 21.65640200
H 20.02885642 18.77128339 23.60377477
H 19.82919292 19.84991457 22.41394587
H 22.91789097 17.97934315 19.03545765
H 23.34248503 18.59876466 17.60675792
H 17.45385519 21.48913771 19.50969749
O 16.47603679 21.06400870 19.43268116
O 19.62409917 19.94800920 17.95736700
O 18.63559183 17.51873534 18.97879013
O 22.80006551 20.72032558 20.45734404
O 17.12883376 18.80621137 20.60299069
O 21.51112678 23.37976908 19.91527408
O 20.45715448 21.20387180 21.62057546
O 18.91053122 22.08632382 19.56325458
O 23.03335107 17.30039698 20.49663932
O 20.42882982 16.99132380 21.12180624
O 19.49584482 19.00443142 22.76245115
O 22.57299878 18.47941281 18.20330735
36
i = 0, time = 0.0, E = 0.0;
H 15.49404535 21.40829001 18.65938801
H 19.67613496 18.95533230 19.26371564
H 21.09450983 19.75446050 19.16849458
H 18.39717360 17.30343609 17.99535065
H 17.93047029 17.76127912 19.45256542
H 24.04178889 22.86730645 17.32507309
H 23.52589974 22.66726562 18.82121460
H 16.62800882 18.27080178 21.13721966
H 16.29179769 19.17165723 19.95701460
H 22.58546259 22.93272621 20.77908293
H 22.99557659 21.54763816 20.41572889
H 20.07028329 19.68097512 20.99411127
H 20.87054170 19.78179905 22.33236189
H 18.87617839 21.25623304 19.70523515
H 18.42732036 21.37860615 21.13947992
H 23.22684075 18.08056546 21.11839146
H 21.87953887 17.58949439 21.56471131
H 20.71983887 16.95259825 18.94573618
H 21.93079156 15.97309250 19.52413503
H 18.51279967 18.96533647 22.69708573
H 17.09095177 19.56827265 23.23105093
H 22.94297691 19.23676362 18.37433102
H 22.87309097 20.77280872 18.22013311
H 16.78684777 21.30555226 19.41304122
O 16.13459106 20.72635250 18.90459288
O 20.13509530 19.79744688 19.53843604
O 18.79469612 17.56576563 18.93814924
O 23.32923967 22.52925456 17.82444183
O 16.44636756 18.20000115 20.16153747
O 23.41248622 22.38359224 20.54056911
O 19.93704792 19.67956919 22.03427699
O 18.22553988 21.79375633 20.26804798
O 22.66175378 18.10593141 21.87636744
O 21.66021695 16.92323479 19.33829726
O 17.56466281 18.75528969 22.95760485
O 22.79974792 20.05985431 18.88106791
36
i = 0, time = 0.0, E = 0.0;
H 17.00401293 22.44517627 17.98803401
H 20.44340752 18.31393696 18.85915001
H 21.71272710 19.07579099 18.49728772
H 19.89082474 15.93319366 19.21188546
H 18.90703890 16.93303896 19.68096159
H 23.07998600 20.95139016 19.52010714
H 23.30475779 22.44447565 19.48413882
H 16.58075727 16.47931027 19.68273603
H 16.88476890 17.99882535 19.87036370
H 20.57057182 23.11693788 21.02241357
H 19.51182456 22.30357805 20.27663129
H 19.73888200 21.04739489 22.01806601
H 18.78671938 20.30369505 22.86528769
H 20.20973330 20.72109153 18.76987798
H 21.29835334 21.68678886 18.86023671
H 23.10303926 19.77807579 21.89893868
H 22.26936070 18.51727588 21.74159966
H 20.36144772 17.45037580 21.45461080
H 20.26631063 18.72655767 22.29998050
H 17.24637342 19.89758668 20.97997406
H 16.22059993 20.26523833 19.83122721
H 24.21473773 18.89663654 18.37029104
H 23.84442282 18.81680309 19.96423646
H 18.14291037 21.62321003 18.43550596
O 17.16540863 21.58413384 18.42403193
O 20.72764093 19.10480477 18.37844750
O 19.86385655 16.72182513 19.76096805
O 22.67728642 21.81169396 19.84194531
O 17.17191412 17.15365859 19.39922299
O 19.65821211 22.71838844 21.19236481
O 19.27583040 20.17675077 22.03029504
O 20.29417003 21.68502829 18.68337426
O 23.23860593 18.83817943 21.72382668
O 20.86673953 17.88427521 22.13870720
O 16.43714761 19.58594659 20.53919964
O 23.67897404 19.22108362 19.06602021
36
i = 0, time = 0.0, E = 0.0;
H 16.64569402 22.64935903 20.14604963
H 19.94438102 18.79109895 19.61680596
H 21.53578894 19.03015607 19.81055685
H 19.10495471 17.50553689 17.74374120
H 18.19645427 17.98450119 18.94785064
H 22.71794250 21.18663262 16.86440302
H 23.69413179 22.18671128 17.61189561
H 17.06766941 19.21350072 20.80359160
H 17.39267329 20.14980130 19.54742483
H 20.63519584 19.99033474 16.88422554
H 20.26737852 21.23738677 16.06519702
H 19.08864845 18.54148668 23.25541634
H 19.78289985 19.45002624 22.12841534
H 20.45803328 20.98424545 20.27283423
H 20.39414005 22.27833296 21.04067209
H 22.37708822 19.39474234 22.30117943
H 23.85070583 19.71197749 22.69497142
H 19.91358765 16.42821256 20.45930500
H 20.08260508 15.21790163 21.29241670
H 17.59755935 20.00010086 22.49471211
H 16.54827043 20.91746319 21.89672054
H 23.39155675 19.43171833 20.23740770
H 23.18545615 19.92643526 18.71839067
H 18.09913671 22.29698269 20.61555913
O 17.17763553 21.94724874 20.55898747
O 20.60149401 19.28423729 20.22729569
O 19.01499731 17.44734595 18.68293075
O 23.57931369 21.27691024 17.31388780
O 17.41685015 19.19742518 19.86490857
O 20.92966334 20.50903569 16.03886894
O 19.28852171 19.44496038 22.97562469
O 19.90599011 21.88052435 20.34223353
O 23.18273796 19.90584069 21.98153578
O 20.33349727 16.17916903 21.29865805
O 16.61830099 20.22119104 22.57560487
O 23.10895244 19.14284658 19.32629736
36
i = 0, time = 0.0, E = 0.0;
H 15.90284579 20.55499726 18.74321082
H 20.44520133 17.61946942 18.75896880
H 21.56812843 18.08167397 17.71001963
H 19.76279484 16.41067172 20.91103490
H 18.78528332 17.80913024 20.58827022
H 21.41577891 22.66311780 20.31525562
H 22.57157822 23.01272840 21.37196638
H 16.80625024 18.55431399 19.90779332
H 17.10137980 18.50181527 21.49638975
H 19.99231031 21.90387698 18.93889311
H 20.78889679 23.14660440 18.21866847
H 20.45898095 19.82321207 21.87787237
H 20.57363564 21.33160246 21.92199477
H 19.71281339 19.73623699 18.33478626
H 19.28327665 20.28546003 19.79575132
H 22.86091438 20.99262348 19.91324914
H 23.13872532 19.52056684 20.52709081
H 21.02017313 18.04714117 21.60562013
H 21.40182440 18.24063103 23.15337393
H 17.01255759 20.73671658 22.49160415
H 18.40048722 20.21562928 22.38716306
H 23.40243200 19.13889976 18.35147285
H 24.16150981 18.18743621 17.43902512
H 17.32325537 20.09747356 18.57416188
O 16.41390154 19.74673706 18.74213651
O 20.57171325 17.97505032 17.88052522
O 19.81396130 17.43959861 20.74841939
O 21.95908853 22.27901390 21.07081247
O 17.24812133 17.98024677 20.59255856
O 20.30299492 22.89828458 19.06133418
O 19.86282749 20.64522240 21.68232247
O 19.18685309 20.45436861 18.81118480
O 23.32256024 20.09161798 19.80346832
O 21.59937150 18.57082865 22.29157972
O 17.45876789 19.89373790 22.72144793
O 23.29688370 18.45526276 17.66235123
36
i = 0, time = 0.0, E = 0.0;
H 17.48366334 21.01040325 21.51727774
H 20.19651492 18.29657459 17.28665459
H 19.23101519 19.28328975 18.03052477
H 16.37187384 17.34289284 21.43831590
H 17.41717835 18.10839712 20.52777445
H 23.40478956 20.88231623 17.57028961
H 23.20568858 21.82711416 18.78351275
H 19.10115912 19.37761659 19.71390921
H 17.59820351 19.96972993 19.53205632
H 21.65584243 23.97506654 18.86582856
H 21.29945058 22.97085556 17.82466338
H 21.13776773 18.92859051 21.74495469
H 20.57185123 20.40244628 21.10574803
H 20.20900071 21.04612055 17.50769305
H 19.03835905 22.03603844 17.08719109
H 22.14973226 17.75410504 20.76371987
H 21.12770888 17.22435676 21.78786924
H 18.77008742 16.88057730 22.27002861
H 19.44074806 15.45921930 22.41808068
H 19.38594533 20.36860939 22.95612462
H 18.13713218 20.10243395 23.86143546
H 21.70265552 18.89518544 18.82551913
H 23.21427394 19.31358511 18.99954909
H 16.60241296 21.95880343 20.82126586
O 16.96777151 21.07268671 20.70641393
O 20.17880657 19.22229234 17.56718779
O 17.24288504 17.74434523 21.43234980
O 23.63465675 20.95403946 18.52418991
O 18.21319025 19.23656692 19.25007126
O 22.08158398 23.48171439 18.15872157
O 20.40102125 19.58533637 21.51490865
O 19.80361749 21.94008080 17.68539451
O 22.06839899 17.56243313 21.71873195
O 19.66025077 16.40285831 22.26331151
O 18.53279628 20.76960121 23.31208193
O 22.59467999 18.53347463 19.06668613
36
i = 0, time = 0.0, E = 0.0;
H 19.42104534 21.23045204 20.48757986
H 20.39398906 18.45391274 19.08523685
H 20.68000442 18.16041213 17.58003413
H 17.27597844 15.85450948 19.47810106
H 17.57480371 17.35825892 19.26746292
H 21.66652100 22.21482399 17.97273470
H 23.11786410 22.80409185 17.87612251
H 17.17309737 19.38497367 18.75807959
H 18.31266079 18.82459531 18.02276793
H 19.32734192 21.88212148 16.85044051
H 20.20117821 20.66607142 17.30643508
H 20.67129955 21.20768843 24.11492511
H 20.84573101 21.10560258 22.54076746
H 21.64518329 20.26198649 21.06005216
H 21.93699579 21.69815750 20.45115476
H 22.35555797 18.00025107 21.76614298
H 21.02848917 18.26197179 21.13905725
H 18.98018568 17.35794184 21.05930586
H 18.94055468 18.59208567 22.09328199
H 18.62589452 19.98221801 23.46371395
H 17.77956115 20.19516621 22.19959653
H 23.34444683 18.85137357 19.76785800
H 23.69056084 20.10100339 18.95331110
H 18.09479485 21.99808594 20.21821354
O 18.43883034 21.10292044 20.34760146
O 20.24249905 18.83403706 18.18220912
O 17.73384201 16.59846900 19.85450156
O 22.51258372 22.21784167 18.41823374
O 17.32779699 18.63800325 18.12274473
O 20.09568539 21.62132005 17.38143085
O 20.37929140 20.65579814 23.39857317
O 21.33336413 21.20087984 21.05008582
O 21.99100107 18.50739384 21.05611043
O 19.50961476 18.16659240 21.37894898
O 17.72449041 19.77218592 23.06575943
O 23.79890822 19.12487786 18.92668806
36
i = 0, time = 0.0, E = 0.0;
H 17.90594371 22.66301422 20.90266757
H 19.60706004 18.66306982 16.73835001
H 20.67250238 18.68177057 17.79652682
H 17.11830128 16.82389335 19.22940723
H 18.38520285 17.59722232 18.68547989
H 23.73602688 22.47773700 20.38947081
H 22.45387021 22.94082420 19.66947915
H 16.90371627 20.38342206 20.84784485
H 17.30334542 18.80380657 20.84938295
H 22.24161796 21.95415916 17.51498119
H 21.16480981 22.19202988 18.59164633
H 21.47712460 19.88280728 21.55019086
H 21.43849046 21.55412183 21.55060145
H 19.73128671 20.37367682 18.60777865
H 20.57440630 20.65313769 19.86050937
H 22.58611487 16.18069096 20.30110471
H 21.48403675 17.21045280 20.64612995
H 19.29390973 16.85631132 20.78900028
H 19.65204716 17.60744420 22.10373087
H 19.23670775 19.64223126 23.24066744
H 17.96286315 19.13105887 22.70019880
H 22.44851529 18.37881583 19.00013856
H 22.97481007 19.62485114 18.24273189
H 18.49151779 21.68854995 19.76975745
O 17.70257439 21.87476741 20.33400400
O 19.69632540 18.60374041 17.69966410
O 17.92152429 17.35871964 19.50807538
O 22.80048658 22.66902901 20.60067879
O 16.65647004 19.47948011 21.16691432
O 21.83244302 22.66667442 18.02514654
O 20.94409217 20.67964911 21.70965125
O 20.05290901 21.12488680 19.13233427
O 22.38477220 17.15014567 20.18399783
O 20.07580478 17.11958859 21.39604902
O 18.72020543 18.76883464 23.21395209
O 22.18938254 19.10122082 18.33430714
36
i = 0, time = 0.0, E = 0.0;
H 18.29564628 21.78897011 21.49625483
H 19.12066907 18.65262582 18.42702252
H 20.66098431 18.25529282 18.60951393
H 16.91526147 17.43595736 17.97389460
H 16.74592000 18.70565470 18.87277609
H 24.36781685 19.41576237 17.61367322
H 23.27925518 20.33495797 18.00674485
H 16.77455467 20.80835149 20.49813456
H 15.30741222 20.51954240 20.73269213
H 21.49369481 21.65022213 18.21850502
H 22.54340558 22.34575439 17.08918922
H 20.35275617 20.31923071 22.24496682
H 21.41790229 21.22102539 22.88186238
H 20.10082427 20.43680543 19.16650724
H 20.80700802 21.56971193 20.15416333
H 22.94439195 18.53573955 21.13727620
H 22.28133224 19.01784165 22.38901452
H 19.75979577 18.66957403 20.88655102
H 19.11302118 18.37249578 22.28786048
H 17.24595547 17.38199534 21.50432575
H 16.81650597 18.81922640 21.79753189
H 22.99065206 16.71304151 19.10231224
H 22.94754890 18.28306567 18.87325001
H 18.54113634 22.01205452 19.92312282
O 17.90331653 22.22787511 20.69108013
O 19.99355472 19.00454157 18.71830079
O 17.40997419 18.24237733 18.24448152
O 23.90755081 19.66391495 18.42214699
O 16.16210025 20.03036874 20.67488010
O 22.20074408 21.44588774 17.48684936
O 20.59320704 21.29117535 22.43246478
O 20.27154103 21.51148266 19.32922963
O 23.12844220 19.04453344 21.97582122
O 20.01194723 18.63762559 21.86578160
O 17.24901650 18.05290730 22.21978368
O 22.39891997 17.48816215 19.22446348
36
i = 0, time = 0.0, E = 0.0;
H 18.14477915 21.75358107 19.55498756
H 19.25140635 19.11357066 18.47084084
H 20.77930472 19.39694455 18.17361292
H 17.50056247 17.20431184 18.38597438
H 17.40203628 18.34891925 19.57457033
H 24.25969207 21.11852162 19.93514892
H 23.27271302 21.98282719 19.23429604
H 16.76354138 20.18071294 20.15954394
H 17.38995888 19.28925644 21.29441609
H 21.43966202 22.63810851 19.19903576
H 22.36933199 23.26278915 18.18835539
H 21.43216478 20.12358105 21.92365750
H 21.20183032 20.76341408 23.26892743
H 19.99870965 20.85651243 19.39484701
H 20.16005047 21.51488153 20.91926497
H 22.98099102 16.88888263 21.01940191
H 21.53514873 17.09762000 21.00745484
H 18.96072772 16.79667421 20.33674838
H 19.64109778 15.58163475 20.96467604
H 18.68987604 18.07354951 22.91885404
H 19.21722605 19.53427617 22.92252986
H 22.22013417 18.30790741 19.39180772
H 22.88329727 19.29220154 18.38312483
H 17.60623904 20.99895868 18.37532219
O 17.28966459 21.51967028 19.12253482
O 19.88837609 19.90092933 18.17333125
O 18.01575388 17.70228100 19.06004782
O 23.67067075 21.05706896 19.13433208
O 16.57272282 19.32130934 20.70749185
O 22.30367149 23.10822768 19.22222925
O 20.71028862 20.60544611 22.44767824
O 19.99646150 21.71049859 19.94549841
O 22.37075562 17.62694934 20.82799189
O 19.52299623 16.55062507 21.11533240
O 18.37802352 19.02920377 22.95599504
O 22.24145977 18.58079847 18.37686205
36
i = 0, time = 0.0, E = 0.0;
H 17.38762107 20.20529157 18.23875430
H 20.79973707 18.59791542 17.75135756
H 21.90624007 19.52279113 17.83090168
H 18.53711503 17.60663129 19.96250765
H 18.86056690 16.17962283 19.55438192
H 22.53368092 22.47088744 16.85740807
H 21.95053552 23.45850730 18.10308933
H 17.21806136 19.18545298 20.40993942
H 16.18113399 18.00958556 20.51063115
H 20.02090056 22.86972954 18.48416737
H 20.08898804 24.35946237 19.00107447
H 21.12267710 19.52436088 21.17592246
H 21.98048130 20.90292919 21.11544908
H 20.18173133 20.65459196 18.44543560
H 20.43458835 21.24671922 19.77058611
H 20.99110721 17.10838821 22.02309112
H 20.62973811 17.47736341 20.54620350
H 20.18618462 15.23852799 23.31942682
H 19.29482040 16.52397976 23.18873203
H 17.35490472 17.68735512 22.87324749
H 18.32507626 18.63712515 23.71337898
H 23.87244669 22.15864090 20.61519769
H 23.18680719 21.73470125 19.27237899
H 18.36462939 20.83708617 19.39952533
O 17.46912157 20.30419957 19.22000495
O 21.00707986 19.53115423 17.51223918
O 19.26852949 17.06475394 19.54653668
O 22.71543915 22.94327801 17.71247239
O 17.06419831 18.20609868 20.82222485
O 20.35860848 23.82096623 18.23956935
O 21.02959550 20.59201311 21.23256193
O 19.80318318 21.37481602 19.03106630
O 21.26661770 17.68158071 21.26252549
O 19.86634009 15.90084159 22.65595146
O 17.87251869 17.78275527 23.69840739
O 23.47214197 21.37962781 20.20834887
36
i = 0, time = 0.0, E = 0.0;
H 16.53494773 22.46713711 20.17402858
H 20.51418284 18.45215733 17.42959319
H 21.96841315 18.73607655 18.16087414
H 17.82123593 16.69042664 19.02218145
H 18.79374779 17.50278194 19.87869145
H 23.00651382 21.58429365 19.16696100
H 23.98405870 21.25067250 20.29969845
H 16.21500247 20.06294430 19.85437789
H 16.83986880 18.73176481 19.48519193
H 20.97842790 20.75411476 18.30007764
H 21.30731614 22.28560835 18.00792029
H 18.65660980 20.72813167 23.03749478
H 18.40431808 19.37942306 22.79033367
H 20.21955590 22.21372012 20.00080524
H 19.66828922 21.88043786 21.32677206
H 23.54264073 16.74013006 20.74398019
H 22.42540559 17.74136706 21.01441680
H 20.81357915 18.85930290 19.77981433
H 20.49772708 19.38099596 21.33704766
H 15.96606406 18.76589055 23.32652956
H 16.55525526 18.56959811 21.95070000
H 23.75445143 18.51657257 19.29841138
H 23.72998855 19.94760669 18.77787453
H 17.77776733 21.76612493 19.68699639
O 16.72768457 21.73349788 19.53012281
O 21.01244037 19.07510843 17.95832466
O 18.39589782 17.48056421 18.92804960
O 23.96358878 21.39956169 19.37300849
O 16.38525770 19.13257906 20.24759983
O 21.41311662 21.63398239 18.70989962
O 19.17969872 19.98888662 22.80824777
O 19.42915191 22.29326580 20.51441287
O 23.44143703 17.69492385 20.96288775
O 20.95960884 18.70332767 20.72242101
O 16.75105323 18.39269326 22.88371177
O 23.62481160 19.00268422 18.45987692
36
i = 0, time = 0.0, E = 0.0;
H 17.81224324 21.49388786 18.75006222
H 19.62496525 19.30392447 16.97183090
H 20.90000714 19.09055804 17.94534679
H 18.98179544 16.61647655 19.78444316
H 18.45263302 18.01794118 20.13592347
H 21.49546056 21.75104740 20.01821341
H 22.85214384 21.33103262 19.48309448
H 16.94885254 19.56113569 19.61199414
H 16.29020991 18.60292999 20.67076525
H 22.98626377 20.30518746 16.90654082
H 22.26201374 21.62867403 17.19699695
H 19.69456470 20.50379550 22.12170345
H 19.06740122 21.89454606 22.16665291
H 19.94314479 21.11818069 18.56978963
H 19.46064377 21.23354808 20.04832312
H 23.67250467 18.19642637 20.12442218
H 24.20005908 16.79448600 20.39385609
H 19.77930598 18.08521070 21.85169529
H 20.84399657 18.34885830 23.02922167
H 18.00683328 18.82149395 23.44114758
H 17.38095954 19.77764492 22.34911498
H 20.97113752 18.25231361 20.17446066
H 21.84737907 19.62317493 20.01846767
H 16.62971969 21.79180212 19.68096525
O 16.91758747 21.12085864 19.04942634
O 20.33973667 19.75814912 17.50285488
O 19.24629701 17.44244344 20.18642432
O 22.27084108 21.17788570 20.26308751
O 17.04423912 18.63280499 20.00166905
O 23.15146198 21.21260407 17.28260801
O 19.02073469 21.06185252 21.65533515
O 19.69273969 21.77740902 19.20821776
O 24.56356966 17.71184588 20.24401225
O 19.96412938 18.61195458 22.68631988
O 17.24277516 19.45562682 23.29253142
O 21.82151589 18.62201288 19.81464373
36
i = 0, time = 0.0, E = 0.0;
H 19.85123959 22.64863709 16.36412086
H 20.68549173 19.88807859 18.28789063
H 19.38693011 19.33242468 18.85091267
H 17.83184535 18.34153920 19.91196601
H 17.63807536 17.37915811 18.70904847
H 22.79935750 17.51451089 20.92791737
H 22.64837363 18.92730189 21.54437180
H 16.44951549 22.43018520 18.73849218
H 17.92363168 22.41372224 18.41119422
H 22.12315618 22.34816613 20.58051756
H 22.83511638 21.50020915 19.61867754
H 17.61686183 21.16720215 20.88603541
H 18.78412847 21.63959964 21.53650207
H 20.05832417 21.22208109 19.98993682
H 20.01133865 22.69365867 19.60937234