87
i = 0, time = 0.0, E = 0.0;
H -3.03452343 0.91623643 8.05739418
H -3.01910924 -0.05640825 6.78902472
H 1.53061018 1.03739164 9.04215229
H -1.67722855 3.25588903 2.00266282
H -0.47689411 6.86975321 7.87648132
H -2.39956038 0.41353119 4.93594482
H 2.35014847 1.75844178 7.91639002
H 0.27433238 4.87380006 2.48722285
H -3.77799375 7.40808035 5.33563009
H -4.60847988 6.09883363 7.13446227
H -1.76073912 1.91962959 1.25815172
H -3.10326586 -0.97970395 4.58407050
H -1.67112237 3.70627349 5.40354478
H -2.48886568 6.60253929 7.39628596
H 0.37795095 7.10756468 6.59121232
H 0.77832417 4.84872618 0.93547299
H 0.31218772 4.38276440 4.51796470
H 0.71537141 6.54706184 4.54854474
H -4.18036666 5.35130852 3.16845936
H -3.25856621 5.89612994 5.31112922
H -4.34991694 6.70795412 8.54448171
H -2.20441195 5.47530037 8.47984839
H -0.61197395 7.47109146 4.51651979
H -4.16694398 1.48259200 4.48260534
H 1.74746722 4.43138677 4.25970031
H -0.47033400 3.64753801 6.45380696
H -1.57893499 2.62682663 9.19861147
H 1.73466527 5.77588926 7.76913580
H -1.00966570 2.01670427 5.07137130
H 0.02453824 4.09971354 8.77617919
H 2.69171897 4.77463894 8.65292928
H -2.79868302 5.83129791 2.42898812
H -3.72462250 2.41162070 3.23887626
H -1.14393613 1.58221259 3.58984219
H 0.19811313 -3.12016765 4.88206071
H -0.10856345 -0.23260975 7.32188327
H -1.80851000 7.19780629 0.41577734
H -1.28202493 -0.29783125 8.30977136
H -1.18899824 6.03897544 1.14977266
H 0.69609640 -1.05405710 5.15757747
H -4.58842330 4.42741349 8.47596632
H -0.51733130 -2.56499048 3.65027210
H -2.00884224 1.53831118 10.27472348
H -1.22451597 -4.09532559 6.62453461
H -6.29906967 5.13564276 4.62901440
H 3.02358817 4.31831279 6.02130353
H 3.08019911 3.02243942 5.31860612
H -3.99945143 3.00746241 8.87470939
H 0.24561239 0.46704487 5.05983349
H -5.58461752 4.00039317 3.93769235
H 0.43593381 2.57599032 8.47754997
H -3.71745545 3.49364377 4.79345152
H 2.08520767 0.85414276 5.71987101
H 0.07912349 -3.40477616 7.30201883
H 3.60431233 0.96865751 6.13323748
H 1.02862573 -2.88687612 10.06327422
H -3.64715261 3.48932576 6.29686548
H 0.62609912 -1.83576814 8.97909145
O -1.85142447 2.30447067 2.16983480
O -3.18325536 -0.11755804 5.08600739
O 1.82184767 1.93410937 8.71051163
O -3.11942441 -0.00887409 7.78569196
O -3.35255459 6.75197964 5.84630996
O 0.45476659 6.80751067 7.56465372
O -2.14894084 6.43646656 8.33341644
O -0.04228523 4.72101127 1.47011565
O -0.69973768 3.49895500 5.49468440
O -4.92386217 6.05170714 8.05620564
O 0.31800866 7.42940011 4.81564991
O 2.38818657 5.04382141 7.76971539
O 0.93958986 4.95236048 3.94576531
O -3.16237125 5.24633338 3.13593927
O 0.34450164 -2.44298535 4.16810859
O -0.28794074 -0.19961205 8.29405628
O -1.07625848 1.18624948 4.51788638
O -1.65340904 6.87383939 1.31979109
O -4.45387411 2.33687929 3.93201074
O -2.36068055 2.23413354 9.69094767
O 3.12255238 3.96687787 5.08231107
O -5.87987114 4.91182718 3.77052577
O -0.33830645 3.26776712 8.42693802
O -4.46401577 3.49245223 8.15302356
O -0.34220752 -3.74833426 6.49201735
O 0.85172529 -0.13364921 5.59122453
O -3.28733299 4.02870127 5.54974097
O 2.79652952 1.53810847 6.12305407
O 1.15833029 -2.67985866 9.12732757
87
i = 0, time = 0.0, E = 0.0;
H 1.23125627 -2.73308666 6.76473946
H 1.56041648 -4.26137209 6.23587674
H 5.65435061 0.07509771 7.10692254
H 5.49661276 -4.52749398 7.43231255
H 8.55082795 -0.12073826 1.53956092
H 0.99721995 -6.77083594 6.41923476
H 5.02456555 -0.66073320 5.85434662
H 7.64980003 -5.19128763 6.80434443
H 4.39166585 2.14213093 5.40269596
H 1.76102440 -1.54024009 8.29807638
H 5.51472573 -6.04629021 7.32656984
H 1.57722730 -6.16801522 5.18435752
H 3.30566959 -3.31444539 6.91628371
H 5.72793414 0.40878459 -0.66915291
H 7.03361998 -0.59923158 1.48150572
H 8.67903071 -4.24833609 6.03618393
H 7.76057691 -6.06736080 4.68305525
H 5.75188296 -1.64251738 0.18250969
H 6.23553249 -1.01020771 4.12081357
H 5.13854845 3.37469690 6.02695595
H 0.46502344 -0.93324105 7.67236346
H 4.83813597 -0.00493136 0.50710099
H 6.80308351 -2.73586485 -0.21845583
H 2.08122216 -2.86745525 4.70197676
H 7.07448847 -5.77460940 3.35056820
H 4.50664380 -2.35809157 7.08912307
H 3.68075137 -1.80930821 9.17212655
H 0.15657671 1.54350667 8.63643942
H 5.83282953 -7.19187773 4.82416837
H 6.50057908 -3.62785532 1.64482401
H 1.23661791 1.75810272 7.53943785
H 4.86969839 -0.62772762 3.42365055
H 3.18859482 -3.25816705 3.67428971
H 4.36141349 -7.75508327 5.28612586
H 3.21986816 -5.72317610 3.68075682
H 1.76742152 3.82335389 6.66608468
H 4.60911430 -4.19865279 5.43067927
H 2.55104275 2.47712003 6.22513509
H 5.21139581 -5.36140082 4.57736719
H 8.18795128 -3.13394671 2.96341860
H 6.82699107 2.02811770 2.57756742
H 2.05471059 -6.04404253 2.82693650
H 3.85498628 -0.65224204 8.21415096
H 1.30357098 -3.91340728 2.65877407
H 4.94344593 1.12149743 2.29983805
H 6.66522250 1.56737840 6.47387654
H 7.64060594 0.39892193 6.52570691
H 5.90934441 2.42987534 3.77908012
H 9.46838601 -3.80532357 3.27217433
H 3.38465354 0.85516310 2.34170633
H 6.03037521 -3.87878496 3.15297263
H 1.19392189 -0.02914980 3.21745246
H 8.31724004 -0.30871058 3.86792227
H 0.30315554 -4.63086010 1.69382562
H 8.88861284 -1.64548692 4.39394896
H 3.39646085 0.50149473 6.18783199
H 2.26068756 -1.16927823 3.51448671
H 2.71807936 0.71184134 4.72893414
O 6.13483683 -5.27685949 7.56320767
O 1.18629962 -5.89337671 6.04605518
O 4.93022935 -0.59601732 6.85246928
O 1.87793179 -3.27666075 6.14907799
O 5.30083480 2.52014871 5.56157239
O 7.65837718 0.12764631 1.89149359
O 5.11348049 -0.30328495 -0.37020088
O 8.49700836 -5.21905459 6.14745640
O 4.27579527 -3.34117388 7.20837992
O 0.81519371 -1.80685083 7.91973302
O 6.38042426 -2.36542484 0.57286863
O 0.38273217 1.27010714 7.75467909
O 7.16267736 -6.47957849 4.01089130
O 5.23007458 -1.04368988 4.24567812
O 2.53320076 -6.43352175 3.58925368
O 2.43513200 3.10567711 6.97174044
O 5.23235001 -7.47110922 5.62663502
O 4.70086425 -4.53020435 4.46698964
O 2.29297484 -2.79737261 3.69234208
O 3.18240276 -0.97393183 8.93738140
O 7.03937702 0.89663898 7.10220456
O 4.22769815 0.42641028 1.98843348
O 6.81582539 -4.00081380 2.49669610
O 5.89722703 2.29685781 2.80249720
O 1.24912032 -4.52999617 1.90415180
O 9.12198434 -2.91488139 3.18412978
O 2.14308313 -0.18276339 3.41644247
O 8.29799005 -0.87643049 4.67126036
O 3.01510691 1.20239655 5.52760530
87
i = 0, time = 0.0, E = 0.0;
H -1.98975356 3.61429875 4.27436550
H -2.67822826 2.97853756 2.99397072
H 5.29939353 -1.41573859 7.60692289
H 1.78629841 1.32613143 5.63230565
H 2.47042735 2.97806882 11.23306563
H 4.57176121 -1.24161325 5.44098350
H 5.24561291 -2.98375344 7.07926358
H -1.41627321 3.84004750 6.36736225
H 5.19415860 0.56703118 8.86334203
H -1.31566821 -1.80738385 5.84998672
H 0.25543582 1.30059492 5.29616814
H 4.55722733 0.03759538 4.58635723
H -3.70370118 0.84072968 8.04389905
H 3.80907204 7.21677726 7.93212915
H 2.30622767 4.34354062 10.46083482
H -2.57560911 3.09449211 6.91393308
H 1.79319410 7.48580079 7.06245667
H 3.28450193 6.22183927 9.99510994
H -3.65767111 0.37274352 5.59012018
H 4.16659285 -0.37466227 9.40935737
H -1.96435834 -2.58174358 7.10263339
H 4.15223353 5.74902873 7.99646938
H 2.32531827 6.72113551 11.18589454
H -4.64712175 1.76565844 2.16099605
H 2.38018090 8.85955481 7.29331132
H -3.35649429 -0.53793099 7.30586200
H 1.89140896 -1.65572038 3.49334261
H -1.65366066 -2.32339674 4.07902322
H 1.40299238 2.28484982 2.19804852
H 3.04727637 -0.80118135 11.11185386
H -0.04937362 -2.17363150 3.95524730
H -2.46550479 0.02629640 4.58698863
H -3.82851464 1.31966209 3.50284696
H 1.83138236 2.24239899 3.65080057
H -0.50968263 0.79095622 1.08003497
H 4.54425813 2.23247220 2.78909282
H -1.80733993 2.34473515 9.06221442
H 6.00611519 2.29960691 3.39800038
H -3.19700784 2.73728290 9.41490305
H 0.69981438 4.82764353 3.67520758
H 3.31475711 0.97964036 7.23746289
H -1.21085999 -0.48561390 1.81410460
H 0.79267269 -1.42196354 2.42674336
H -0.97493602 3.17547966 2.23961599
H 0.54314666 2.78360307 9.80476710
H 4.49402731 3.34941356 6.82720021
H 4.74492187 2.47193387 5.66275019
H 3.04113556 -0.13577499 6.18596197
H 2.28920756 4.37315263 3.53933953
H 0.32007052 1.44954374 9.13593309
H 1.95954967 -0.72240620 9.89286541
H -0.08284531 -0.81802667 7.95340043
H 1.67984368 4.69768413 7.13109375
H -0.63462629 3.27633364 0.73710560
H 2.53321077 5.18941559 5.83658251
H 0.19724502 3.15251932 7.80836072
H 1.34831245 -0.36981971 7.77028378
H 0.59324238 3.61429710 6.37186955
O 1.06459284 1.87227127 5.21129179
O 3.96240179 -0.70876707 4.85560511
O 5.44397801 -2.05057265 6.84072912
O -2.02486722 3.66783457 3.27976453
O 5.10843732 -0.37239493 9.04419836
O 1.94854518 3.41279041 10.53060719
O 4.18182857 6.53729873 8.57305148
O -2.18497637 3.39738444 6.04019509
O -4.10417257 0.03246653 7.57191585
O -1.61576114 -1.70475054 6.81825335
O 3.00405543 6.03333455 10.95566960
O -0.86819060 -1.76572882 4.36825091
O 2.58688090 8.02744672 6.84609246
O -3.36854277 0.40741182 4.66598235
O -0.69128979 -0.17193776 1.06854075
O 5.04440541 2.31821532 3.62438586
O 2.22821157 2.18324316 2.74772973
O -2.76815754 2.16884688 8.74973671
O -3.79368901 1.79907332 2.61567965
O 1.15237009 -2.12122560 3.03086654
O 4.80667100 2.44470872 6.65642056
O -0.08741196 2.32059858 9.14691744
O 2.83978313 -0.32117233 10.26292586
O 2.56558651 0.47609656 6.83592041
O -0.36778069 2.66891327 1.48296439
O 1.56484197 4.96635986 4.02784612
O 0.64168585 -0.43519739 8.51143195
O 2.60284568 4.84804853 6.78418529
O 0.04447602 3.94230194 7.16496477
87
i = 0, time = 0.0, E = 0.0;
H 8.84745378 3.81388487 7.22675723
H 9.61021980 3.45715812 8.64178731
H 12.31465828 6.59531068 8.88712979
H 5.62529928 1.64574266 9.16742756
H 6.93288670 7.14646296 6.13768823
H 11.00229077 -1.19509386 8.78060800
H 11.19469844 5.44984083 8.55787559
H 5.88109649 2.42538053 3.41166701
H 7.80556790 5.04044560 5.69548391
H 10.05361516 7.61311760 8.13979100
H 6.88674074 0.78204610 9.01132271
H 10.02644727 -0.24012111 8.03838116
H 6.47088790 0.92722630 6.77919917
H 5.52605263 4.36194869 2.55807934
H 8.50886778 7.25563517 6.61344931
H 7.44703008 2.30785446 3.58066140
H 7.54993603 5.72872292 3.07949804
H 4.59851568 6.50879858 6.24579860
H 4.75511484 3.60235203 5.70156796
H 8.12980329 3.67309268 5.05436605
H 8.54641022 8.01968220 8.46198028
H 4.30106903 3.80102326 1.78235412
H 4.59374587 7.88651866 5.60645480
H 7.91083162 0.18537987 11.64818477
H 6.36379183 6.04994603 3.94024463
H 6.68118934 0.64126850 5.19156954
H 6.84594857 3.80898726 7.78499607
H 8.04937105 5.65524339 12.20673557
H 11.97103428 4.71041409 5.90530962
H 9.24379512 6.33146861 4.71327863
H 8.35275569 6.42823035 10.89774355
H 4.09119390 3.74454118 4.34939929
H 7.85146918 1.21083336 12.97370542
H 11.30669180 3.61956937 6.75361360
H 3.66799777 0.92474381 10.36867788
H 8.97109846 4.10032933 10.85850340
H 3.67821671 4.64094689 10.23169865
H 8.99207540 2.48703470 10.94033440
H 2.48988169 4.48023352 9.12039534
H 8.40421904 0.59626528 6.48302821
H 2.98533031 5.13769519 6.49718205
H 3.50768772 2.48785061 9.97906201
H 7.52640492 4.01891659 9.23261622
H 8.99259893 -1.11864586 10.20240142
H 6.48351103 7.09902515 10.17899949
H 9.46494571 4.37666952 3.41410438
H 9.83715803 2.81590646 3.61392669
H 2.11540785 6.34112616 6.44354524
H 9.52973103 1.69356977 7.05969064
H 7.16448082 6.12226591 9.11227305
H 10.00964241 7.17553815 3.66213287
H 5.96368364 2.00217597 12.16258113
H 10.75626311 1.06353213 4.98694454
H 8.59076662 -1.88485470 11.51738687
H 11.47121255 2.52715904 4.79370881
H 5.57313864 4.88219689 9.96758247
H 4.55057314 2.46566811 11.76033892
H 5.44101643 4.44062498 11.49932958
O 6.42915215 1.50100572 8.56463490
O 10.13657937 -0.78743776 8.90136408
O 11.32648436 6.41570035 8.85015326
O 9.79052913 3.67094499 7.63665647
O 7.69081768 4.04701526 5.88370306
O 7.85835641 6.84068890 5.92695609
O 4.90874163 3.62974571 2.49920804
O 6.54919215 1.97229205 3.93440359
O 6.89901239 0.31100840 6.12144018
O 9.22065088 8.02434585 7.76121210
O 5.19613605 7.11086345 5.69509207
O 8.76537152 5.79620237 11.56168199
O 6.62017353 6.03102098 3.01089447
O 3.97091787 3.99994848 5.34938056
O 4.16724296 1.74249892 10.12833592
O 9.03450739 3.25068722 10.29376562
O 11.94632531 3.72668618 6.04386622
O 2.97026985 3.98825120 9.82707765
O 7.81112329 1.17108888 12.01338536
O 6.97032659 4.49834750 8.51195094
O 9.13845820 3.47558617 3.31505590
O 7.26644964 6.99509072 9.65984662
O 9.91603813 6.26447367 4.01553137
O 2.77193004 5.92942741 7.01166320
O 8.25949041 -1.22622474 10.87675560
O 9.38477947 0.75293812 6.78222655
O 5.25068649 2.68819513 12.41244102
O 10.99668535 1.75639253 4.29311292
O 5.27390790 5.22866698 10.89445652
87
i = 0, time = 0.0, E = 0.0;
H -1.13797681 4.44323287 11.43922527
H -0.99395507 4.55959483 9.93740958
H -0.30848956 8.37902590 10.41161562
H 5.74579032 4.62812013 4.55909436
H 2.80643630 9.58600795 9.50759214
H 1.97499065 6.32756766 7.77922418
H -0.02742994 8.92458514 9.00761799
H 7.41262238 3.72476294 2.83709711
H 3.53441934 9.31360841 12.14630631
H 5.45530318 7.28584553 2.24445056
H 5.80499818 2.96696866 4.66838533
H 2.17714482 7.99197933 8.16566451
H 0.56248474 2.89300862 10.62447979
H 6.63623465 9.55869043 5.85900787
H 2.21802978 9.99129840 8.09225423
H 8.59050007 3.83720522 1.88269265
H 3.23523355 7.77335662 6.26946936
H 3.33833749 10.20719064 5.95482491
H 3.20190499 5.11089744 1.79007452
H 3.30130464 9.67671410 13.71181738
H 6.22155501 7.74013217 3.37609982
H 5.40591631 8.89639148 6.46888969
H 2.75192871 11.60939514 5.89617031
H 0.97509430 3.47528961 4.92500434
H 3.64557190 8.44003998 4.86698165
H 2.04785419 2.97281830 10.80548349
H 1.94416988 1.08715122 9.38663099
H 0.42904543 5.00323838 8.38789216
H 4.41743425 3.71719116 7.76994741
H 6.63862393 10.00078939 8.08409744
H 1.62016904 4.88402195 9.45302944
H 3.84605583 4.58522255 3.10834873
H 1.62939297 4.38898098 3.89656781
H 4.69094313 5.03672350 7.06573134
H 2.29184738 1.81591812 6.76428595
H 0.76671278 6.78345190 13.07995891
H 6.71507239 5.46051756 1.49831289
H 1.71798070 7.94786234 12.56736092
H 6.92304771 6.52862015 0.46539342
H 5.06272935 5.96766014 9.15420647
H -0.89833788 6.81143840 8.75601233
H 1.74460600 3.22301608 7.23549614
H 1.64898583 -0.44169401 8.88235903
H -0.43404726 5.43717850 4.82878383
H 3.44032020 11.45171399 3.97804971
H 1.95109555 5.86520105 11.41413116
H 3.36320057 5.69228387 10.69609893
H -1.42851441 5.95980734 7.52476352
H 3.85420494 6.91880671 8.87471922
H 3.83090628 12.89456711 3.80838649
H 7.49482562 10.07717881 9.41826659
H 6.39262015 6.71082436 5.79500670
H 5.45674674 9.76491886 10.10903419
H -1.85687989 5.18330201 5.12058006
H 4.73145305 8.36593001 10.44060310
H 2.58741313 9.05710101 2.84986774
H 5.11668466 6.80021804 5.14540749
H 4.07904990 9.10615823 2.78043135
O 5.71225595 3.76135352 4.03402870
O 2.46333995 7.23496048 7.57304729
O -0.73353292 8.43550039 9.52398492
O -0.62147859 4.10024577 10.68639772
O 2.85686143 9.37010018 12.89264134
O 1.92608229 9.55793316 8.93159119
O 6.33103043 9.03118406 6.60902030
O 7.93007076 4.37056161 2.31852145
O 1.35946825 2.33075341 10.75218148
O 5.70214800 8.16188496 2.60450084
O 2.84575135 10.80878396 6.49770947
O 1.40654345 4.82135417 8.47789212
O 3.99340470 8.11335100 5.72520973
O 3.29156664 5.28712831 2.75013928
O 2.09669813 2.71245352 6.41047322
O 1.09474566 7.21159292 12.26293964
O 4.96339109 4.53321896 7.87274113
O 6.24416777 5.96660498 0.79934498
O 0.72506376 4.03223532 4.13845321
O 2.05136685 0.43618649 8.62596786
O 2.58909483 5.16320521 11.06049005
O 3.51440092 12.29996835 4.44894970
O 6.69359934 10.44716543 8.95632151
O -1.10100971 5.89732912 8.48463603
O -1.10188585 5.69677436 5.51212947
O 4.48548951 6.61359735 9.59906869
O 5.95077667 6.27173131 5.01542234
O 4.65216599 9.33794006 10.55864012
O 3.36922515 9.56162276 3.24952263
87
i = 0, time = 0.0, E = 0.0;
H 6.50314568 0.21211486 4.15929711
H 7.03665022 0.12721074 2.61950944
H 2.58736470 -2.64743089 7.20760678
H 7.57534408 3.27981552 1.23367777
H 3.13504416 3.15951661 6.13736109
H 7.41277556 -0.56532439 0.58757669
H 1.21695953 -1.92040055 7.07271616
H -1.12821341 0.75860296 5.50216501
H 3.75259351 1.16729738 6.86697090
H 4.38596119 6.37393531 5.49417087
H 6.67171350 3.49705644 2.55974274
H 8.41149710 0.56853125 0.53094046
H 1.26005688 2.32495464 3.67418190
H 3.09129051 3.81060740 1.05573677
H 1.73570494 3.61564269 5.47011707
H 0.16403783 0.56145660 4.70925453
H 5.09656407 0.70357883 1.48826347
H 1.08294438 3.27962726 7.55096748
H -0.53345819 -1.31605022 5.65659918
H 4.98929171 1.31225526 5.85189495
H 3.21055165 5.30591921 5.68545876
H 2.64476382 2.58972289 0.23997371
H 0.46362359 2.70230857 8.70484391
H 3.34025151 -0.76836420 0.90430864
H 4.35072585 1.69784838 0.54163196
H -0.15880050 2.79774192 4.12773128
H 4.81508645 -2.32224894 5.03451640
H 1.23474259 -2.60502235 9.11743772
H 1.92777887 -0.21748702 4.04146193
H 1.22588114 4.43176102 2.67322294
H 0.91104694 -3.59642457 10.41761607
H -0.92804096 -2.50756851 6.55821483
H 3.93552003 -2.09733372 1.35771400
H 2.70004455 0.93597103 4.78560592
H 5.76515929 -1.56470034 3.16930203
H 7.61078775 0.86439604 5.42266715
H -2.41465850 3.08750457 6.72910933
H 7.08558181 -0.04332763 6.50455940
H -0.99302003 2.89382900 7.31801907
H 5.47062210 -1.86667284 -0.61674849
H 1.78289908 0.99566330 9.05616568
H 6.33699940 -3.08789009 2.99566178
H 3.38327624 -1.95496598 4.85545677
H 2.12977642 -2.03545218 2.45997117
H 2.99427535 -0.47228974 7.89822691
H 4.74390617 4.34914847 3.97756513
H 4.67183220 2.79348240 4.00883674
H 0.25750675 0.60739139 9.13622887
H 5.40688537 -0.29128958 -0.27473614
H 4.11021504 0.17529830 8.77921358
H 2.37450613 5.31370299 2.89799736
H -2.64966326 -2.99199923 8.99489510
H 8.26828721 2.05309128 3.23031754
H 1.09822456 -2.43800934 3.61265332
H 9.48813304 1.12579394 3.51944824
H -1.97040346 0.70897673 8.23776624
H -1.15420555 -2.84623385 9.05152565
H -1.84214674 -0.89627423 8.53357287
O 7.58900069 3.22116735 2.21641226
O 8.12319057 -0.14207769 1.09152741
O 2.01449754 -2.01281924 7.69965535
O 6.21755782 -0.00979846 3.20519504
O 4.01475521 1.44277291 5.90755775
O 2.38236647 3.81136591 6.26723011
O 3.43743747 3.10204591 0.40885484
O -0.79575352 0.53535159 4.57104333
O 0.74430758 3.15474386 3.91875519
O 3.80430823 5.74684803 4.99780603
O 0.26580024 3.43488387 8.03259527
O 0.63609600 -2.84096479 9.88044043
O 4.58232716 0.73599099 0.69157856
O -0.18294655 -2.18000748 5.99935821
O 5.51635032 -2.55697546 3.20797211
O 6.72780400 0.58276069 5.82019252
O 1.84754618 0.73342285 4.33798043
O -1.78423991 2.39242156 6.91636347
O 3.11530226 -1.76945411 0.94917184
O 4.04703208 -2.05093364 5.55570946
O 5.04414541 3.57048050 3.48788771
O 3.26568686 0.40516047 8.28766404
O 1.94425446 4.91237136 2.15125424
O 0.94066964 1.29473138 9.42199182
O 1.97610057 -1.97455048 3.46391380
O 5.97057804 -1.03816990 -0.64814798
O -1.94410492 -2.60247358 8.50622974
O 8.68876909 1.40387139 3.94478251
O -1.51610635 0.00615626 8.78225168
87
i = 0, time = 0.0, E = 0.0;
H 3.45097480 -2.85156235 1.27078534
H 3.10191888 -4.35224948 1.01198625
H 5.13309366 -0.87243656 2.38467425
H 4.66666895 -8.14699479 -0.12859972
H 2.78283177 0.25743840 -3.43804721
H 5.97388545 -6.69240786 -1.53171412
H 5.38112125 -2.29873548 2.92881559
H 2.03757353 -6.46760337 4.17194579
H 7.49431671 -4.91546976 -5.08332703
H 5.25072488 -1.69414829 -5.58758205
H 4.17590509 -6.79248190 0.41864254
H 6.53302102 -6.44719871 -3.04925797
H 1.84079059 -2.55204856 -0.56650986
H 4.45744988 -3.85236306 -6.46646256
H 2.33244893 -1.30045929 -3.88530056
H 1.11588875 -7.46420654 3.38416587
H 8.83147111 -4.89685151 -0.48108266
H 1.30311527 -2.63713138 -4.55337152
H 3.50031480 -2.00501569 3.79085275
H 6.92683205 -3.57594736 -4.65107623
H 6.08697935 -0.95787053 -4.44821192
H 4.27636121 -4.07028953 -4.81365305
H 2.57421704 -2.56893419 -5.47785980
H 3.25271791 -5.27540836 5.64227577
H 7.61203410 -4.76665939 -1.43237811
H 1.67686824 -1.50493195 -1.84189514
H 5.84463161 -5.34262033 3.34337952
H 5.59262466 -1.29351348 -0.19330112
H 1.46383176 -5.06098086 -2.78578829
H 4.16393705 -1.36262462 -2.33183381
H 6.52350709 -0.37560250 -1.09267110
H 2.36633478 -3.06531501 4.15370650
H 4.08871978 -6.12819463 4.80856871
H 2.03468519 -5.56884729 -1.37257711
H 8.04837746 -5.67828499 5.29799203
H 6.76507069 -3.76523932 4.05355958
H 1.05463585 -4.74635444 3.22213983
H 7.05277765 -3.52903333 2.45335982
H 0.86234842 -3.53843210 2.32828059
H 5.05792368 -5.09926436 -2.51433978
H 4.46091093 0.45438621 -4.74760265
H 6.67716149 -6.05554421 5.85965168
H 6.09275734 -6.73556463 4.04870436
H 5.90874978 -3.73775063 6.54520281
H 0.79247378 -2.94473354 -2.29205458
H 8.06617758 -3.19333932 0.45364574
H 7.27149650 -1.98231640 0.88864066
H 3.24429327 1.40337841 -5.25672223
H 3.51693337 -4.82025062 -2.54076043
H -0.26367331 -3.45229958 -3.39590333
H 4.43730633 -3.02999917 -2.16492753
H 4.11052751 -3.03458923 7.19573398
H 6.23497942 -2.07921937 -2.58476671
H 7.52843034 -3.67841848 6.87564164
H 7.83694315 -2.27965798 -2.51391253
H 2.74901621 -6.32554614 2.38197258
H 4.09421417 -2.89767221 5.67806322
H 4.28577283 -5.79353396 2.25078716
O 4.93673167 -7.20422738 -0.13877319
O 6.51663821 -6.05513740 -2.13305318
O 4.74067085 -1.78609475 2.39110379
O 2.89610113 -3.43065625 0.62337232
O 6.70043340 -4.34697650 -5.27406837
O 2.43818060 -0.61732053 -3.02383921
O 3.99688034 -3.51782434 -5.61584111
O 1.47094829 -6.58666435 3.30403458
O 1.13302225 -2.07871955 -1.16443345
O 5.46840713 -0.82182942 -5.19044073
O 1.91297671 -2.02341368 -5.03992227
O 6.37143235 -0.68688717 -0.18084916
O 8.35017930 -4.20858457 -0.96656392
O 3.08083218 -2.49123731 4.51750607
O 7.50755143 -6.46996858 5.48107927
O 6.42778145 -3.88741105 3.13081453
O 2.11424375 -5.70868076 -2.34228858
O 1.20232158 -3.78437476 3.22945389
O 3.19201694 -6.14760744 5.27393097
O 5.40113880 -6.14524333 3.68435806
O 7.80082829 -2.70943838 1.30743146
O 0.62832120 -3.63105534 -3.06389770
O 4.68328793 -2.07844718 -1.87024090
O 3.80554613 1.10463903 -4.51082940
O 6.83699937 -3.96944458 6.26197086
O 4.39508667 -4.47246202 -2.94245721
O 4.45069188 -3.48713037 6.39364844
O 7.09586551 -1.92802705 -3.07202127
O 3.43591429 -5.89812112 1.72253022
87
i = 0, time = 0.0, E = 0.0;
H -1.63749488 3.26755015 7.99774143
H -3.00181689 3.50178655 8.81627445
H 1.70145075 7.67715900 5.17859530
H -5.26310709 3.70151171 9.83491892
H 2.02803953 4.25341953 3.84084588
H -3.60858590 4.98233514 10.76086717
H 0.17902327 7.54525876 5.46543006
H 0.43650243 5.12602504 -1.15259062
H -0.64135814 7.86445312 2.53326990
H -4.73621091 10.80618447 4.38360189
H -5.95058712 2.94923164 8.57958054
H -4.14252288 5.62479840 9.29607357
H 0.04719020 3.11265835 4.72511080
H -6.80152642 11.93260184 2.96488164
H 1.46732722 5.53682892 3.36162575
H -0.56835443 4.71284034 0.00136518
H -8.45110847 12.40018640 4.44986347
H -0.58650398 3.43281274 2.09887000
H -9.86511103 8.96042430 4.07263192
H -0.19262527 8.58761927 3.88048397
H -3.29537461 10.93096314 4.41932339
H -5.49773172 11.35017157 2.14457685
H -2.05978295 3.62515181 1.66234306
H -8.57825783 7.33848283 6.75444075
H -9.09599505 11.50189939 3.44120332
H -0.12389492 1.81773867 3.89767282
H -1.20916760 6.45533275 6.34215364
H -1.14121975 10.35323745 3.27035753
H -4.02939207 4.29521291 5.18262686
H 0.27709149 6.24460224 1.25620955
H -1.45215853 11.85439728 3.34465709
H -8.37947923 9.35478689 3.86141644
H -8.08399290 5.94204205 7.35310000
H -3.32045761 5.76776208 5.03217341
H -5.64069700 7.17897261 9.28571949
H 0.81084572 3.57109920 6.90223036
H -6.71586466 9.59549393 2.80751365
H -0.39443341 4.52508476 6.53081956
H -6.56629937 8.28979591 3.72257160
H -4.43675391 3.50832920 1.79145480
H -2.91081951 10.72037766 1.95606056
H -4.58103009 7.63733334 8.13936097
H -0.89471440 6.32563387 7.91521921
H -8.52676293 4.91206697 9.34723477
H -1.75236759 7.63870328 4.34186566
H 3.76617361 7.34018488 4.66368624
H 3.03777677 6.13943156 4.96736543
H -3.37740518 10.70255899 0.41198023
H -3.72365346 4.25052092 2.99693591
H -2.80122849 7.77046046 5.65020255
H -0.67540799 5.59007038 2.33232386
H -6.89292156 6.88360390 5.51853795
H -3.89361154 3.00699924 7.11362649
H -7.02584257 4.73572027 9.00971454
H -5.10601918 2.34103041 6.25030737
H -4.96021929 7.91898564 5.80749563
H -5.74062552 6.13013459 4.92515610
H -4.12398558 9.33740664 6.01598464
O -6.08724715 3.20229422 9.52316964
O -3.77631384 4.77561288 9.81087476
O 0.82304969 8.19951666 5.13994800
O -2.49517849 2.87266604 8.24388688
O -0.97321773 8.59326200 3.16395034
O 2.16676562 5.22001326 3.92918224
O -5.93577874 11.37858710 3.02376253
O -0.19164398 5.48458697 -0.48581584
O 0.11965150 2.75788253 3.76033768
O -4.02187115 10.73265974 5.03866357
O -1.14417860 3.84608075 1.40241027
O -1.89462955 11.00895123 3.11784068
O -8.56531575 12.34325551 3.46612981
O -9.30446121 9.79355638 4.10249945
O -4.74546352 7.01426729 8.91871127
O -0.03515026 3.60079804 6.38276609
O -3.96583636 5.13490012 4.62592427
O -7.21647054 8.78250187 3.11470275
O -8.44592636 6.38489003 6.47870081
O -0.63105343 6.03650581 7.06457757
O 3.44965407 6.91213327 5.45414022
O -2.03353026 7.19154814 5.21137704
O 0.03858012 6.31996119 2.23861551
O -3.61655384 10.33458246 1.31052801
O -7.78019297 5.33006450 8.87404795
O -3.62183455 3.54105519 2.33518209
O -6.09056178 7.01989840 4.96061482
O -4.80554832 3.18108835 6.74120474
O -4.22105785 8.35623338 6.30199929
87
i = 0, time = 0.0, E = 0.0;
H 8.13359274 1.36609901 6.52171711
H 8.41504463 -0.12269638 6.27766998
H 11.18873171 2.88130085 8.01943827
H 8.85857439 2.32645159 3.08974535
H 7.76267774 5.20584407 6.34841407
H 7.39048007 -2.59699514 8.29002945
H 10.00923305 3.28337869 7.44894927
H 5.79235196 -0.09585121 -0.70974601
H 11.06890343 -0.69824206 6.07572504
H 5.41409014 2.99657311 8.36973261
H 10.08445012 1.52328366 3.40371767
H 8.15738781 -1.42714950 9.16889875
H 5.46794341 2.04031458 4.85620814
H 2.65007318 3.61388748 6.30763805
H 7.49809174 3.91168108 7.14909044
H 5.05959112 0.33255604 0.57411636
H 4.78409792 3.94110097 4.76037937
H 5.15589084 5.78367282 5.67821473
H 5.07360117 -2.54678986 2.02514493
H 12.28129730 -0.97744467 5.04433600
H 4.93783986 1.54072972 8.20617139
H 3.21137236 2.75472911 7.40977123
H 5.98379061 7.03782717 5.96397215
H 8.98733804 0.05635037 2.54391939
H 3.53473679 4.52935065 4.14158850
H 6.62503783 3.19949379 5.15587501
H 6.02359466 -3.46260223 6.66146784
H 7.17962761 1.68778083 9.06248732
H 11.65309078 1.12535724 4.80358705
H 12.74851597 1.20732501 7.10556520
H 8.26944850 2.84181312 8.80743394
H 5.51430225 -1.84838144 0.70621485
H 9.21139952 -1.20059493 1.46266402
H 12.00646757 2.39828500 3.82334577
H 6.95720516 -4.33445889 4.54022345
H 9.54014934 -2.00067967 5.41838808
H 3.56380276 -2.14301492 4.01459209
H 9.30368760 -1.83772631 7.03132659
H 5.05851009 -1.64705518 3.97596864
H 5.39457297 2.27835341 1.92857012
H 3.08467043 1.76930135 5.77078891
H 5.50426715 -3.51274095 4.69355100
H 5.18958099 -3.51368816 8.00962338
H 6.92928968 -3.89310056 1.74985070
H 1.94326038 -0.50109454 4.78681447
H 13.33130100 -3.00782907 4.65931674
H 11.83364758 -3.25987100 4.65195987
H 3.80630712 0.30636824 5.58935009
H 6.19060384 1.03441877 2.26190322
H 2.07047877 -0.70728137 3.29799161
H 12.79089338 1.61846707 8.57021439
H 7.03443839 0.07953624 4.29848508
H 9.34298113 -2.27343250 3.39506908
H 8.05114279 -4.96314620 2.03255587
H 8.93870053 -3.77580524 3.76757253
H 6.15970528 -0.20569950 7.33859455
H 7.37363269 -1.08270213 3.28851777
H 5.53268182 -1.45100730 8.07503162
O 9.31517448 1.54338478 2.74449303
O 8.22533735 -2.15065128 8.50941523
O 10.27681709 3.08228682 8.34566277
O 7.68524320 0.49461083 6.34809369
O 11.88673743 -0.27534225 5.67632955
O 8.13452216 4.30482284 6.50429886
O 2.35947088 2.81825032 6.86855523
O 5.00791401 -0.35003931 -0.21624438
O 6.03263479 2.77222044 4.46143542
O 4.64018439 2.46716735 8.15398037
O 6.07553197 6.08998406 5.90617823
O 7.32472681 2.63172747 8.77751124
O 4.01977441 4.56646643 5.01426610
O 5.69744586 -2.62793986 1.29679972
O 6.16993077 -4.08629820 5.19770109
O 9.56492200 -1.36739936 6.19748947
O 11.29685308 1.75148029 4.13320061
O 4.51945518 -2.45460134 3.85404283
O 9.24187056 -0.96843835 2.39712516
O 5.88097179 -3.03547447 7.57796949
O 12.59336483 -2.93385617 5.24997495
O 2.09371399 -1.21618297 4.14024898
O 12.89086384 2.04738442 7.70893753
O 3.69032961 1.22381299 5.15740012
O 7.34855044 -4.44302785 2.50538683
O 5.74321453 1.47051914 1.48705861
O 6.63790506 -0.48147685 3.61707433
O 9.54865424 -3.04960271 4.04280252
O 5.42896354 -0.47149916 7.96714579
87
i = 0, time = 0.0, E = 0.0;
H 3.02275956 4.44932863 5.82375447
H 3.72564628 5.25397810 6.97786955
H 5.44267295 5.70251017 0.96388323
H 1.01662577 8.21859626 0.98691542
H 0.24255783 5.84561016 7.85780793
H 6.01998190 8.79707139 1.83931377
H 6.41307102 6.01806339 -0.26684071
H 1.44120205 9.10184038 2.70876346
H 3.17531637 7.06237947 8.08646747
H 6.01421125 2.53416478 5.90674355
H 1.28456865 7.67744179 -0.44083277
H 5.72981671 10.37805242 1.90766029
H -0.37513083 9.60270653 7.29526518
H -4.01556075 6.15189065 3.27398500
H -0.73828517 6.61902717 6.83882465
H -0.09296710 8.89012192 2.89445676
H -2.82659661 9.02615146 6.71685162
H -2.94209947 5.85482729 5.49028953
H 0.56606093 5.33609598 0.77244019
H 2.50411288 5.74185852 8.56601860
H 4.78801894 3.39551240 6.38092867
H -2.88046558 5.20656526 2.83738232
H -2.91694202 6.72893102 6.73008219
H 0.22139809 6.49760917 4.13236635
H -2.53791146 8.47657228 8.11006951
H 0.78329898 10.27787612 6.48494370
H 2.40227243 1.34758552 4.96468630
H 4.14459577 1.38717489 6.45812853
H 3.39729405 8.15766260 3.69333288
H -0.49688607 7.93581098 8.68390038
H 2.96455631 0.45667501 6.82005782
H -0.46326509 4.55063004 1.56232703
H 0.69475364 5.26266114 3.20199712
H 3.92681099 9.26124183 2.54922647
H 1.68986982 3.38745619 1.74257378
H 7.26304780 6.78848071 1.49778139
H -1.95813100 3.17247804 3.14568634
H 7.59308213 7.47087447 2.86209053
H -2.67613688 3.05056826 1.88508890
H 3.79613628 6.04386907 2.55490672
H -1.76432037 7.44400720 4.39876981
H 3.16052488 3.63294396 1.96176860
H 2.22669573 2.22018156 3.55599223
H 2.38859641 6.34806351 4.02310853
H -2.19052361 3.73954991 5.44790433
H 1.50262453 8.46015251 7.06003472