81
i = 0, time = 0.0, E = 0.0;
H 4.30923766 -4.79345802 8.04698505
H 3.07168899 -5.67550131 7.95661634
H 1.42269632 -7.60891236 8.46589125
H 0.04297488 -3.15274938 2.52794063
H 4.61449187 1.37561322 8.30471666
H 4.68194213 -4.16003330 10.08186244
H 0.46413949 -6.41337642 8.44464205
H 1.00890945 1.26901440 8.21573716
H 2.35948274 -2.98702794 8.12100233
H 6.89243195 0.10145975 8.32390091
H 0.76992728 -2.69396798 3.73022533
H 4.94192749 -2.95786562 9.21765224
H 3.44796736 -1.28197587 12.67878460
H -0.68467492 0.12013573 4.49816229
H 2.95841325 1.26087892 8.39464383
H 1.11767487 0.27216174 9.48122415
H 1.71614779 -0.73588505 4.97300792
H -0.11512331 1.45699680 5.98935420
H -1.56789365 -2.62876505 6.75454724
H 2.14707508 -3.64700044 9.65364177
H 7.55617949 0.45923163 9.74293374
H -1.56852434 -0.14422157 5.76536956
H -0.01128485 2.86149767 6.68387100
H 0.36483428 -4.58230273 4.27966174
H 0.34066880 -1.32172803 5.48559709
H 3.48019081 -1.39874782 11.07750151
H 8.04390137 -0.82345202 6.13766851
H 3.53396191 -1.81033014 6.29317507
H 6.43348749 -3.52980313 6.18038103
H -0.80089247 -1.49391741 7.62103349
H 0.82461430 -5.59243796 5.47362478
H 4.06380103 -3.22691620 6.62579166
H 6.17184204 -3.17098849 3.63931164
H 0.10915433 -4.43343656 8.73747902
H 1.46441488 -0.97411731 10.98386456
H -1.13988684 -4.94899414 8.06628217
H 0.90796606 -1.82153772 9.77125231
H 2.80428954 -3.82975931 3.11151900
H 5.37513187 -0.69106955 9.89847377
H 4.75723994 -3.53348719 3.99145567
H 7.49460233 -1.88747998 7.07527209
H 2.95844276 -7.14726316 4.75855631
H -0.74811645 -3.91555594 11.17964937
H 2.95042047 -3.33366051 11.69380062
H 1.75415952 -4.32662751 11.57143608
H 4.19885960 -1.01589565 8.97014040
H 3.21166112 -5.08569312 3.96301174
H -0.07947644 -2.86880372 12.15588092
H 6.38530557 -3.72729457 7.74873489
H -1.11405742 -4.69016060 5.87434287
H 3.39274706 0.34009001 6.36900220
H 3.26822270 -6.02903858 5.89199079
H 3.74533708 0.44509877 4.81595424
H -2.71316138 -4.53581533 6.28391847
O 0.68093846 -3.50345203 3.15878008
O 5.04620382 -3.94940629 9.21612518
O 1.37024066 -6.70813788 8.16888803
O 3.92869673 -5.51778748 7.50188418
O 1.71077399 -3.11734732 8.88181442
O 3.79823563 0.87157776 7.98136852
O -1.42441317 0.52272039 5.00993081
O 1.42016372 1.20688543 9.17903847
O 2.95617762 -1.68042712 11.93895153
O 6.67646411 0.35735766 9.24190708
O 0.44298553 1.98529320 6.63131316
O 0.85363412 -1.22712572 4.63792255
O -1.19689005 -1.69488201 6.76509254
O 5.61352744 -3.17718191 4.45559702
O -0.66027956 -5.00826610 8.90292500
O 3.43437488 -2.57286894 6.97108551
O 0.62264402 -1.16923395 10.49517054
O 0.03762465 -5.15605937 5.09498860
O 7.93698030 -0.99805184 7.10902540
O 2.70713749 -4.21824182 11.24709487
O -0.08023085 -3.83612645 11.87740262
O 6.87848664 -3.26670211 7.03483658
O 4.58164743 -1.28605462 9.82709293
O 2.76012010 -6.20898657 5.03717786
O 3.59996540 -4.38910594 3.32768032
O -1.83978797 -4.27309322 6.56869194
O 3.29190975 -0.15045080 5.46058198
81
i = 0, time = 0.0, E = 0.0;
H -0.59021692 3.58626303 4.95609928
H -0.96696792 4.95005661 5.21762364
H -2.05982211 1.76398121 9.49553589
H -5.23107424 2.12551406 1.41917026
H 3.65133156 4.23481573 3.59150823
H -2.61065167 6.72085074 5.75789059
H -3.38640252 2.00500963 10.42004598
H -4.07511448 3.66208283 0.37267862
H 0.25085402 0.88334225 9.81752828
H -3.04544964 3.66387618 8.15396767
H -5.26733655 0.98185752 2.64953952
H -3.05815482 8.06946168 6.30396474
H -2.40563053 2.29685998 4.67671080
H -1.07366951 7.69342906 2.69296131
H 2.17212290 4.43667547 3.25813667
H -3.22075493 4.61729807 1.30769062
H -1.64982164 3.36621808 0.43164782
H -0.43025117 6.88003425 4.84905423
H -6.27458060 3.88761133 -0.45222737
H -0.32671967 0.98670992 8.36872964
H -2.40925185 3.91590429 6.75534498
H -1.84437058 6.44645135 3.00880620
H -0.15536666 7.19822983 6.44155634
H -5.22844275 2.99080301 5.25007686
H -0.42369059 3.64020000 -0.50451137
H -2.41375855 1.17933419 3.66066465
H 0.08788066 3.43934801 9.11269560
H -4.51797777 0.93249398 4.48813430
H 0.02493566 4.03802418 1.66131402
H -5.84668216 4.64121903 0.87810319
H -4.60576685 3.97039372 6.24945185
H -5.74292193 0.35268148 5.28127415
H -1.69109678 7.42790266 8.29016580
H -3.34867842 0.64041569 6.18047091
H -5.96188696 6.20916895 2.58030637
H -3.37008573 0.73574280 7.77466651
H -6.56445164 6.78419865 1.24212652
H -3.12957340 0.89191329 1.89900600
H 1.38391779 4.99140209 5.85047630
H -0.92737737 8.91597716 8.23373721
H 0.68083407 4.38047680 7.98748232
H -2.51585136 5.38507643 8.36190676
H -4.16879670 5.75945075 3.21892489
H -1.52378506 -0.03045823 6.62084089
H -0.09531505 0.58061579 6.22933318
H 2.65101191 4.22230920 6.23860593
H -1.55205654 1.14779534 1.66099180
H -3.00139567 4.79319841 3.66233922
H -0.00490204 5.13358274 2.72666156
H -5.37682056 5.54144509 4.72391695
H 1.10782999 2.84838475 5.46647024
H -1.03715538 5.36312417 9.00729667
H 0.58941459 2.48357148 4.04581118
H -4.84960087 7.04000248 4.69380080
O -4.94015938 1.22197776 1.74701745
O -3.38755448 7.21107544 5.98823714
O -3.03726461 1.97724672 9.49125384
O -1.44794344 4.08786078 5.05599299
O -0.33801665 1.37724451 9.26703493
O 2.76722308 4.23148375 4.02551812
O -0.90719381 6.84252547 3.09318916
O -3.10993518 3.94807175 0.52852196
O -2.89067276 1.50722848 4.48739799
O -3.21823438 4.15619477 7.35111781
O 0.03438196 6.57422583 5.66671384
O -0.69049920 3.22331736 0.31443830
O -5.77102302 3.73079707 0.38637233
O -1.24965734 8.16444941 7.69122242
O -3.25352233 0.13829300 6.98851056
O -5.55145217 0.87891499 4.47334309
O -5.95056438 6.06093127 1.57109310
O -5.25030115 3.92976934 5.50160422
O 0.10838771 4.36241913 8.83304924
O -0.58162830 0.09416110 6.95483444
O -3.24024951 5.45561750 2.94353152
O 0.53082223 4.33759410 2.44391549
O 1.76666134 4.42351832 6.57589886
O -1.89468861 5.93917737 8.92093973
O -2.19138494 0.62812367 2.21769183
O -5.36515651 6.38874465 4.18695022
O 0.44303625 2.28905960 5.01010107
81
i = 0, time = 0.0, E = 0.0;
H 3.92012729 -3.27707362 5.99596585
H 5.16672568 -3.25495965 5.18969057
H 7.94864578 2.92461915 6.52074304
H 7.80527642 2.04297000 4.24952113
H 1.08434719 2.27232157 4.31949164
H 7.40627505 -3.05800383 5.25751601
H 8.33935672 4.37346338 7.06711344
H -0.67880500 -1.45176918 6.16281664
H 4.92552131 3.57770716 5.50870273
H 2.05867677 1.48221282 8.64173380
H 7.00920937 0.93998780 4.89668662
H 6.90656142 -2.44198897 6.58525244
H 2.52493886 -0.29298923 5.13540893
H -0.09214334 1.05407702 8.53815859
H -0.27806050 2.29968912 5.05694941
H -1.01151291 0.06366551 6.37103496
H 0.43063235 -0.67123036 4.64061071
H 2.88709141 -1.87534200 10.96984348
H 0.84306252 -5.30322579 2.61503439
H 5.91177235 3.40825134 6.66952647
H 1.64525324 1.51543199 10.15496380
H -1.30615432 0.03277253 8.66879755
H 2.20340883 -0.69228467 10.24473795
H 3.69546674 -5.76604181 6.08051450
H 1.35564942 0.14338096 3.54695753
H 3.13109259 0.64252207 6.36888514
H 3.15416379 -1.34489488 6.91151856
H 4.77015374 -0.15483929 5.15666414
H 4.38797019 0.78912838 2.05842021
H 1.90925480 -4.05254695 2.84015527
H 3.11455102 -6.76909269 7.11451109
H 6.26889344 -0.84689500 4.80150894
H 6.06634091 -3.13416375 8.40532085
H 3.61757917 2.85447948 6.89876712
H 2.17874828 -2.01635676 3.43354998
H 2.06583819 2.46260724 6.53151263
H 3.46158163 -2.94072519 3.75423674
H 4.16082573 -1.24778328 2.09181313
H 0.48945420 -1.89984505 10.15114159
H 7.63383460 -2.78895682 8.59696516
H 2.00294042 -2.37992045 7.16511418
H 4.24975061 -4.12731433 9.08232949
H -0.15926730 -2.81956209 7.78526461
H 4.68997895 3.26903683 3.27615485
H 5.95977172 4.19779017 3.13211790
H -0.93309987 -2.30477898 10.50764664
H 5.12932295 -0.51627653 3.11878161
H 0.19829034 -3.77032921 6.49597456
H 4.12487585 1.94970967 1.00204726
H 1.00510042 -4.90074146 4.82721317
H 2.33837469 1.62569900 2.24936274
H 4.02623932 -2.78761220 8.49902327
H 0.77089939 1.45215643 1.84685863
H 1.35364780 -5.67417672 6.19572604
O 7.86988547 1.42166599 5.00987099
O 6.72856951 -2.41376032 5.54807176
O 7.70652327 3.64586875 7.19415787
O 4.33454228 -3.74206048 5.21739682
O 5.00885061 3.67299571 6.49739322
O 0.60431358 2.67998342 5.12711922
O -0.97195135 0.82069022 8.14327923
O -0.93523160 -0.63828060 5.66591134
O 3.37739118 -0.15305168 5.78805186
O 1.49236362 0.96681646 9.33924164
O 2.01375372 -1.44755104 10.84130222
O 1.41143666 -0.62569049 4.17555650
O 1.49944950 -4.91763280 3.20824565
O 6.96319377 -3.16855457 7.97918636
O 2.82255805 2.19962915 7.15767272
O 5.61795961 -0.11619895 4.57719186
O 2.84648561 -2.64389036 2.99999921
O 3.26217676 -5.82428040 6.96194756
O 2.95806004 -2.23500873 7.39049014
O 5.30287935 3.87514799 3.74518722
O 0.30049136 -2.88210518 6.92462039
O 3.96564773 1.77221677 1.97914983
O -0.41307048 -2.05729125 9.70036860
O 4.57442369 -3.21309388 9.22937442
O 4.85322639 -0.58496180 2.11231803
O 0.59140958 -5.23291378 5.73269075
O 1.38451493 1.40361408 2.57610886
81
i = 0, time = 0.0, E = 0.0;
H 2.49941566 5.76753736 6.34904978
H 1.02189879 6.45403332 6.30209343
H 0.92888836 3.10953922 4.26823905
H 0.65628583 4.15741776 9.62154386
H -0.14882701 7.40353549 3.99866033
H 7.78233063 -1.36712776 8.08139754
H 0.64370021 4.12352138 5.41918961
H 4.86869391 0.25026711 7.04421727
H 4.82130695 2.90520940 8.81702070
H 4.66188649 4.80377284 11.78977244
H 0.40578210 4.89132263 8.17457131
H 6.30706709 -1.83911233 8.02979315
H 8.78489408 0.06256406 9.45154946
H 2.97235230 2.63734761 3.70999799
H -0.34473366 6.36989758 2.83379313
H 5.71841138 -0.07039963 5.76405819
H 3.87663328 7.03233818 3.65427655
H -2.32228499 4.63071531 8.70764116
H 1.26031128 2.87720502 8.39620627
H 3.15376920 2.83687256 8.84241486
H 4.19543137 3.91289779 10.60876089
H 1.97097960 1.42494038 3.58294015
H -2.36746200 3.63898137 7.43523655
H -0.88723890 2.50219613 6.03054982
H 5.03951686 7.96505786 4.19777966
H 8.19145075 0.93741253 8.29185790
H -2.55541843 6.19535658 6.73903509
H 7.00935026 -1.71911831 5.98104355
H 2.38382017 6.86036439 1.76093165
H 2.02278397 2.41681082 7.18207505
H -0.52461866 2.47218998 7.42619173
H 7.41914594 -1.79405539 4.49964893
H 0.89164439 4.16308164 11.85154899
H 4.98944064 5.35640613 6.69530308
H 2.94243119 -0.68123108 7.14387715
H 3.97602487 4.92141369 7.84762337
H 3.09919447 -0.15211092 8.61290498
H 4.42959611 2.15035054 5.36553869
H -0.89966796 4.37387968 4.17273467
H 2.44233640 4.27159796 11.42368532
H -2.72077723 6.38995335 5.23581727
H -0.15077505 8.70695478 5.99628732
H 2.61158110 -1.21489704 4.77801760
H 6.46790458 1.71186679 7.23043096
H 7.44325141 3.02362063 7.46767382
H -2.16339810 4.23640483 3.38599063
H 4.85369079 3.63640473 4.86760532
H 1.37820157 -0.87580766 5.59280506
H 1.63088982 6.90119216 3.03258765
H -1.09399532 -1.21014229 6.26778677
H 6.58812872 5.07463295 4.64966937
H -1.18527055 7.54324552 5.99519159
H 5.27616738 5.73836418 4.78578977
H -0.64685273 0.20972059 6.32251079
O 0.27735327 4.01468719 8.69014237
O 7.18435169 -2.08789871 7.68015789
O 0.17033073 3.36978132 4.88723179
O 1.45334912 5.53847524 6.22612180
O 4.00861016 3.38057312 9.10754566
O -0.20851644 7.31545118 3.00588782
O 2.06263218 2.34268005 3.30386707
O 5.46287357 0.69315275 6.29754678
O 8.74821685 0.13553851 8.49722977
O 4.15354841 4.00636612 11.63950443
O -2.64770700 4.58665558 7.77049596
O 4.57750467 7.12869930 4.39345404
O 1.94505296 2.19331934 8.14298424
O 1.52290175 4.57449081 11.23008628
O 4.12720269 5.55033924 7.14051535
O 6.70156631 -1.46518458 5.04504143
O 3.55701473 -0.67052767 7.96172757
O -1.18033704 2.03893220 6.85422059
O -2.72292258 6.93253183 6.03759002
O 7.00207902 2.27532436 7.94522630
O 2.30620762 -0.62133209 5.48561589
O 2.53245220 6.87260811 2.69279233
O -1.52724713 4.93512850 3.58902576
O -0.17893058 7.77970928 5.76966029
O 4.06927493 3.01792388 5.01813502
O -0.24689654 -0.73449264 6.37724855
O 5.74536430 4.88577878 5.08677110
81
i = 0, time = 0.0, E = 0.0;
H 6.10208291 1.96860205 5.66705228
H 7.44793939 1.42045162 5.82473831
H 3.75631261 1.37336594 5.51825888
H 10.56302875 4.57433956 2.11877839
H 5.53097394 3.45628089 1.33450953
H 7.33827756 2.37910482 8.89690846
H 4.20260962 2.57397068 6.51373023
H 8.84980437 4.73609136 4.36199271
H 4.89513400 3.94510305 4.56615772
H 6.63924203 -0.38188260 2.01783830
H 12.01057813 4.77880628 1.39813114
H 7.69343224 3.58016854 8.08209734
H 7.82399394 6.82126980 0.93142631
H 7.96138037 3.27172779 2.98613339
H 4.11084652 4.08555167 1.44735680
H 8.56788990 5.32354289 2.90041124
H 10.17084809 3.04837107 -1.41538760
H 2.45580676 0.42799463 4.08347914
H 5.19047907 1.93785558 -0.47125327
H 4.75848096 5.40527018 3.78787170
H 5.32618360 -0.49133033 2.62262579
H 7.30117324 2.12347514 3.66239934
H 1.97830285 1.85653238 4.19799344
H 4.75407046 -0.36895453 -3.00208967
H 10.53037379 3.70815707 0.06442953
H 7.29495957 5.33510434 0.78611126
H 7.41799647 -1.40814388 4.49859665
H 7.62309702 3.90110988 5.64919177
H 6.85488112 3.58055015 -1.01450904
H 6.66584620 1.46440098 -0.46326255
H 5.59860117 0.08795174 -1.80712286
H 7.66562459 5.32796091 6.26084616
H 8.94548222 0.77366505 9.36712940
H 5.35624775 3.35552686 8.40777117
H 8.76198907 1.48220044 0.30839624
H 3.94340988 3.46825606 9.12876905
H 7.82647574 1.63132740 1.42869760
H 6.56718046 7.51709712 6.98328540
H 0.60793741 3.78545316 3.94207498
H 7.67222639 0.23209697 8.46700750
H 8.73403906 -0.96233672 5.30746504
H 5.71171887 -0.97034466 7.75239524
H 3.23851020 -0.51466989 1.58333167
H 6.06763053 7.04548957 4.18326077
H 6.39124158 6.50727046 2.85154713
H 2.22728867 3.84601354 3.79645319
H 5.29703935 6.67105638 6.61426143
H 3.63587566 0.78131854 2.54237060
H 8.39060364 3.88787908 -0.45719041
H 4.20010704 -1.08973783 -0.65621391
H 3.97295523 5.03481031 7.29000735
H 6.99463948 -1.27325248 7.13277284
H 3.54576482 5.35332958 5.88336363
H 3.36259435 -2.20309325 -0.20067956
O 11.05721295 4.79738120 1.25231165
O 6.95047910 3.26665581 8.67630414
O 4.45460765 1.73216649 6.13881250
O 7.00819351 2.09776257 5.22827770
O 4.24560011 4.60641542 4.21501367
O 4.59907967 3.21829763 1.20746479
O 7.42641530 2.46725918 2.73186914
O 9.04497698 4.60752445 3.33892710
O 7.44749631 6.09517341 1.46942467
O 6.23024431 -0.83943699 2.84001707
O 2.23418002 1.09989430 4.75927931
O 9.85433482 3.23877489 -0.50344746
O 5.90709564 1.77577282 -1.06751419
O 8.25509621 1.06866610 8.69839122
O 4.36734609 3.53886098 8.24922119
O 8.26721847 4.65487586 5.81652327
O 7.93529826 1.11839374 0.56700575
O 5.28912694 -0.73264371 -2.22940443
O 7.74899383 -1.10114112 5.41027715
O 5.61590375 6.75436656 3.34217783
O 3.30301102 -0.12313009 2.50236156
O 7.37707312 4.17965159 -0.44055998
O 1.43070817 3.33204063 3.55787007
O 6.67424671 -1.04962902 8.01643861
O 6.28858229 6.78512375 6.34694735
O 3.59751748 -1.30074501 0.06088007
O 3.75004130 5.83799481 6.71686654
81
i = 0, time = 0.0, E = 0.0;
H 3.06440997 0.28138117 0.95325702
H 4.37887076 0.15259373 1.65348698
H 8.99846435 2.15223767 2.64141488
H 3.06661406 1.80271954 -2.64286199
H 5.96573834 5.28985914 0.56797753
H 1.69795931 1.93193942 1.99678114
H 8.31529550 2.68007115 1.26702661
H 6.14529603 2.94991627 -2.54035213
H 7.64847910 -0.03457209 -0.88781727
H 6.90098695 3.71677458 3.30973704
H 2.03858737 2.99321918 -2.46266924
H 3.16308500 2.30568615 2.41732862
H 5.26529483 -0.92121451 -0.02056207
H 1.60299152 7.78046399 -2.00770384
H 6.83045686 4.52037007 -0.64371265
H 4.97547770 3.25074336 -3.47873693
H 4.07398820 6.87434280 -2.49746221
H 5.89739816 6.20702588 2.84356246
H 1.60053214 1.60576249 -0.46966716
H 8.00785279 0.53044208 -2.37242702
H 5.75859664 2.76978670 3.40004122
H 2.66029876 7.17582549 -0.87564193
H 5.14390489 4.89538249 2.87191110
H 0.64801729 -1.17654087 1.12650308
H 5.34585471 6.05020947 -1.93967189
H 5.61048704 -1.95534373 -1.06172697
H -1.11014152 0.97626522 -1.78032970
H 1.00002187 0.43580435 -3.40666155
H 4.52591878 4.53504253 -5.11270154
H 0.23207800 1.00910867 -0.10905959
H 1.90996159 -1.45275779 1.96580136
H 0.86350077 -0.83358733 -2.43294475
H 5.15035488 2.18788868 1.46656021
H 8.00140815 2.07992919 -0.86321901
H 2.55525713 4.80839916 -3.24721447
H 8.85173950 3.36121668 -0.93376526
H 1.74008754 5.27254232 -2.00370935
H 1.88503376 -1.95003633 -4.04463926
H 4.36991460 3.87025802 0.02592494
H 6.33678970 1.67723063 2.33795378
H -2.02126595 0.88494215 -0.53271806
H 2.86709596 -1.81300889 -0.65602994
H 3.90842471 6.56275077 1.06733642
H 6.39467088 0.88942012 -3.27379579
H 6.53923249 -0.44516363 -4.09849308
H 3.95857501 2.77978508 -1.01339851
H 2.84884661 -2.57955222 -3.10907477
H 2.41055988 6.15131933 1.37548145
H 4.78028561 5.56647093 -3.99182682
H 1.76010249 4.12662683 2.48880532
H 4.90778364 -2.57809856 -4.07239676
H 2.36397637 -3.29034845 -0.47037905
H 6.34626229 -2.83213515 -4.68509397
H 0.51874506 4.82728501 1.94508780
O 2.19203198 1.99702475 -2.24249143
O 2.18057603 2.54146503 2.55772090
O 8.37737270 2.84668627 2.26486898
O 3.80668663 -0.38532638 1.10638848
O 8.17047119 0.64041145 -1.33996220
O 6.22917909 5.27021001 -0.40954728
O 2.36489251 7.16237068 -1.84180411
O 5.33347726 2.52746002 -2.87095625
O 6.04667368 -1.28084209 -0.57672190
O 6.01350128 3.69906433 3.70174428
O 5.14542156 5.82764194 2.39835775
O 4.97689242 6.50104151 -2.73028567
O 1.15657226 1.11613947 0.23625428
O 5.37566104 1.54027943 2.15947643
O 7.99420528 3.05331550 -0.52873932
O 0.56243989 -0.46617454 -3.32993840
O 1.81028683 4.50929869 -2.65110460
O 1.25442708 -1.89467040 1.35552702
O -1.22647916 1.36269013 -0.90615966
O 7.08555360 0.33633902 -3.78396158
O 2.98326503 6.72060104 0.74581164
O 4.26666459 4.70776775 -4.23016615
O 4.00840801 2.99506516 -0.08009102
O 2.81079914 -2.67882484 -1.14447687
O 2.75477074 -2.38105330 -4.08298492
O 1.37598030 5.05317701 2.33924860
O 5.90982407 -2.47637679 -3.89282510
81
i = 0, time = 0.0, E = 0.0;
H 3.12932942 4.27410703 3.63712937
H 3.22471501 3.09978550 2.49975919
H 3.84656197 3.35940972 4.71142981
H 4.69248953 2.44868288 -0.39518413
H 0.23046272 3.11084485 0.09508357
H 7.40209498 3.99432496 2.29021664
H 3.89961977 3.65711320 6.22939729
H 1.47129322 0.16603563 -2.05907961
H 0.07754037 4.29399225 1.99602002
H 6.43970214 0.68374293 5.72615814
H 3.58963863 1.57229400 -1.28284482
H 7.69055539 4.27350547 0.83525694
H 2.47593304 0.88586600 2.21288711
H 5.53218039 -2.22818257 4.76893353
H 0.68760237 2.12432869 1.18075596
H 2.87281736 -0.81154394 -2.15341390
H 0.31761907 1.63505821 -1.52650636
H 4.38864059 -1.16623371 2.81279034
H 2.97382229 0.85298195 -3.76205773
H -1.10615945 5.07182434 2.49206781
H 5.06282095 1.52140920 5.66524689
H 5.48644252 -0.74177247 4.65210762
H 3.50375692 -1.34123961 1.55088571
H 5.53020723 6.20337507 -3.52619294
H -0.56544534 0.87460947 -2.44605197
H 2.81390856 1.61406237 0.81395186
H 6.41616723 2.83560020 4.04184924
H 4.80973073 5.01082887 2.18801930
H 1.94619999 6.58216224 0.26670072
H 3.68636327 0.45106320 -5.18765919
H 5.32367382 6.12932094 -1.99154868
H 6.19779369 5.40150258 1.71331747
H 6.69853403 1.95347029 0.21280140
H 2.25092438 5.89703050 4.15902312
H 4.72590222 -1.59883426 -1.83882382
H 1.34163023 4.84602825 3.81460969
H 4.04764114 -2.97865282 -1.70615360
H 4.31237522 5.95101582 0.36782356
H 5.78107166 -0.14001429 1.24247504
H 6.70929588 2.78783599 -1.19113199
H 5.56105664 2.68439344 2.75390540
H 6.78596568 4.35423800 -2.82439436
H 6.69621996 -0.67068886 -1.41736555
H 2.51431107 7.55744288 2.50622124
H 3.95167560 7.06237880 2.88547487
H 7.30245766 -0.03868692 1.65728722
H 3.27911552 5.07312925 -0.16609914
H 6.21528927 -0.12620773 -2.75149949
H 0.55539724 6.55245959 1.02486345
H 6.57501671 2.04108898 -3.67867362
H 2.08212654 3.19751430 -1.22497527
H 8.17516692 3.74812898 -2.59093864
H 1.37258180 4.32281372 -2.13536127
H 5.15465899 1.51100128 -4.10571630
O 3.74533844 2.28649098 -0.60237246
O 7.66603901 4.75651350 1.68974696
O 4.06642423 2.93801716 5.59707166
O 3.82747876 3.68399908 3.02883216
O -0.11746054 5.13835032 2.50517055
O 0.03775629 2.88140272 1.08705850
O 5.56492471 -1.54326657 4.05809584
O 2.42227570 0.09793576 -2.37107395
O 2.26590810 1.74175410 1.67834069
O 5.48503766 0.62470595 5.66898888
O 4.01262278 -0.68116924 2.04133229
O -0.11832527 0.73301628 -1.59301082
O 3.32234868 1.18233687 -4.65537747
O 6.45201123 2.78620109 -0.21063576
O 2.17427635 4.98202590 4.38854159
O 5.30301460 5.80918948 1.90049548
O 3.82426985 -2.02976435 -1.66093070
O 5.91804502 5.78832471 -2.68685088
O 6.50019542 2.77739604 3.10388283
O 3.06659505 7.33920058 3.27522180
O 6.25300923 -0.98945314 -2.22098345
O 1.00083343 6.88906477 0.23234387
O 6.74511370 -0.04406021 0.87015526
O 7.28791633 3.42125831 -2.77312025
O 3.63195018 5.96236165 -0.39420016
O 6.07480016 1.19358698 -3.75211225
O 1.21903994 3.42347115 -1.70066924
81
i = 0, time = 0.0, E = 0.0;
H 2.00245953 1.54204182 7.44032671
H 0.38662358 1.38442517 7.55452382
H -0.95064767 3.43076207 5.00551791
H -5.40898471 -0.96976682 5.65323849
H -6.55627523 0.76903269 4.27246228
H -1.53169040 0.74250316 7.25120119
H 0.17861266 3.30259701 6.07402145
H -4.58668204 1.08884315 2.98250868
H -2.75464435 2.29067146 3.24071447
H -1.45042706 4.37230468 6.97259863
H -4.34824609 -0.16370188 6.29100473
H -1.47611454 1.44231847 8.68309096
H -4.23622041 -0.26363410 -0.41315114
H -8.92575449 3.65903358 7.24874647
H -6.55646183 -0.54301111 3.36452312
H -4.01505267 1.26128212 1.54846955
H -7.69964786 -1.46457544 7.90238632
H -7.42617788 4.75220545 6.51373303
H -5.32743745 2.78977363 8.40876280
H -1.31980122 1.97929755 3.34808380
H -2.26614514 5.63369708 7.70909397
H -8.68835255 4.64236331 8.29862021
H -6.78479640 5.57018958 5.37176836
H -7.90001305 1.04252185 12.29488297
H -6.28895411 -0.75672908 7.69086786
H -3.57100438 -0.57073978 0.95694839
H -2.91207891 1.50360089 5.21796052
H 1.00141184 0.92103446 5.25418404
H -7.78045086 2.56494695 4.95806907
H -6.13903442 3.45297775 9.52379597
H -8.57279449 1.13918816 13.71821896
H 1.15195589 0.23616699 3.99886985
H -1.18843918 -0.03653712 1.49771113
H -2.29652710 3.61925232 9.24608346
H -7.69202960 1.83419208 8.21206834
H -3.27745900 2.53591392 9.78238948
H -8.35195109 0.52914261 7.83233140
H 0.44254270 -1.26121706 6.05244680
H -5.17631888 3.84682682 6.64653932
H -1.17529453 -0.44162626 3.13068688
H -3.75526983 2.04535913 6.24152371
H -6.75132229 1.46764900 10.57070723
H -7.67533333 5.73511508 10.29631124
H -4.65987682 -0.68437915 3.13798158
H -3.43809429 -1.56277976 3.29079785
H -3.64452251 3.91803390 7.16940784
H -0.32181400 -1.41935235 7.37625359
H -7.73541765 4.37880526 11.06415153
H -7.80519940 1.51098665 5.99359093
H -7.92558173 3.19095690 13.02596310
H -1.45358758 -1.80641950 5.13584108
H -7.22770829 0.13612426 9.85003103
H -2.67513540 -0.91113092 5.35918349
H -8.80558294 4.50428249 13.16068225
O -4.93576396 -0.96631431 6.46810412
O -1.09251691 0.71173855 8.13364473
O -0.54027850 3.90822082 5.80449143
O 1.15255597 1.91345417 7.11686080
O -1.93598001 2.71504698 3.67169085
O -5.95684166 0.02399287 3.88853129
O -8.76287987 4.63900530 7.31803160
O -3.94954186 1.64126966 2.46384867
O -3.48638337 0.03921108 0.14903834
O -2.21646315 4.68944919 7.61977200
O -6.63823475 4.71596599 5.90580166
O -7.20833950 -0.67517203 8.10719116
O -6.03291179 2.56865079 9.06850906
O -0.85622621 0.19153657 2.41193684
O -2.30677082 2.73626068 9.73657406
O 1.25301993 0.06063554 4.94182614
O -8.41069990 1.50142924 7.58589879
O -7.92791183 1.59442186 13.14848853
O -3.29556258 1.10504868 6.01689502
O -4.10159823 -1.34780216 2.56565471
O -7.71608697 4.77927057 10.16779852
O -7.65075199 1.58634254 5.02024008
O -4.43319606 3.34029446 7.00286258
O -7.46005342 0.76969177 10.59500858
O -0.16596654 -1.89584669 6.50224545
O -7.95913444 4.14845479 12.83605536
O -2.21123663 -1.35411816 4.62289097
81
i = 0, time = 0.0, E = 0.0;
H 0.67087182 1.03426206 2.71833001
H -0.81828599 0.70729987 2.96790408
H 0.46067997 -0.51137102 7.44361815
H 0.90038433 -0.17005767 0.14835728
H -0.75808105 4.86731272 2.41662033
H -0.55826063 -3.09863955 4.22098323
H 1.54120129 -0.22347914 8.30362218
H -2.91310036 6.73316009 -0.82306394
H -4.72296121 2.34490451 4.17241033
H -2.20106158 -3.18727617 6.76057623
H 1.86581636 -0.20248299 -1.02907797
H -1.77541862 -2.24857521 4.59976215
H 0.80212494 2.98205061 1.78019099
H -2.68071932 5.33675830 1.73422548
H 0.59714172 4.85704117 3.30422457
H -1.63684870 7.01518469 -1.80130347
H -5.14157148 6.74345006 0.73060440
H -3.99517858 3.16810229 0.94771739
H 1.67091028 2.03340327 -2.45375000
H -3.40328683 2.58269135 5.07890259
H -1.92416203 -2.55423229 8.09176931
H -1.80198831 6.17591174 0.87378091
H -3.85001755 3.64580313 2.36119748
H -0.77479955 4.92442701 -1.29420020
H -4.22641373 5.55778164 0.33142148
H 0.44810269 2.08711422 0.63645663
H -0.71441488 -2.75305984 9.91575016
H 1.30389324 -2.51906131 3.33212377
H 1.97434010 3.75631079 4.72036116
H 2.15045894 3.20123390 -3.42614993
H -0.10042989 4.04674526 -2.31529147
H 0.34621129 -1.36090077 2.91262142
H -2.69356686 -0.56362848 3.49151698
H 2.83057757 0.62390045 6.67060614
H -0.53553071 2.89425144 -0.87889542
H 2.46120174 -0.83730532 6.58559168
H -0.73185535 1.30754888 -0.96167764
H 1.19219628 1.71782094 4.91680707
H -4.82037606 -0.84020015 6.88981140
H -3.38883954 -1.00948295 4.79899099
H -0.07391103 -1.81400996 8.92574076
H -2.86735458 0.97627991 1.75316223
H -3.34620345 1.17869750 6.80011023
H -0.06132341 1.37759645 8.00864306
H -0.33779369 2.86430755 8.33520683
H -3.28691647 -1.17296820 6.96986932
H 1.06839185 2.39906450 6.26521554
H -2.00648982 2.13046287 6.82283532
H 2.36584845 3.80748807 3.15420520
H -2.90844442 1.62522965 -0.56883149
H 0.13840431 -1.94663398 5.58854904
H -2.82036576 1.82000423 3.17993501
H 0.31994531 -0.41892623 5.22392689
H -4.56156989 1.40152461 -0.65061879
O 0.91272239 -0.23657976 -0.83834686
O -1.18995023 -2.92408701 4.97065012
O 0.56579657 -0.07100292 8.30947814
O 0.15727001 0.52896385 3.35219060
O -3.82978627 2.80257739 4.15110777
O -0.20049824 4.36416288 3.06665831
O -2.03961512 6.04107377 1.83056207
O -2.03784886 6.42384358 -1.14582885
O 1.18171466 2.25563090 1.28920575
O -2.71237394 -2.72141506 7.50335811
O -3.73261427 3.95002942 1.41819851
O -4.57735498 6.43063067 -0.04632072
O 1.43194194 2.56542571 -3.27997821
O -2.95308730 -1.36537585 3.96380003
O 2.89736762 -0.17939835 7.21056084
O 0.52411701 -2.34765204 2.77745455
O -1.06135478 2.09766948 -0.51452773
O -0.03615585 4.30447977 -1.35671594
O -0.56587644 -2.65299298 8.99668482
O -0.40456493 2.25352223 7.57017564
O -2.98215337 2.13199858 6.65604415
O 2.26911472 4.37537229 3.96360696
O -3.96749075 -0.46419337 6.58797937
O -2.51609826 1.00351954 2.66849671
O 1.76023896 2.01956591 5.68232897
O -3.75051207 1.59604222 -0.07574189
O 0.74423911 -1.16692227 5.77641860
81
i = 0, time = 0.0, E = 0.0;
H 0.64896559 2.41831355 3.13118261
H 0.19557779 1.57358459 1.92861233
H 2.08177242 2.59265839 5.06434105
H 2.08297087 2.79400370 -3.37177063
H 4.99667862 7.34692248 1.05472332
H 1.80338080 -0.14113962 1.14397079
H 2.87381352 2.91520154 3.92249008
H 3.78593576 7.25389011 -1.59937795
H 4.48224538 4.16600948 0.53955646
H 4.21462941 -1.02106898 0.50513196
H 3.03282184 3.62289029 -4.27821966
H 0.45271459 -0.76893769 0.44272574
H 2.59736370 4.03653639 0.19528641
H 2.20230034 9.26559986 -1.57020884
H 5.52257017 5.81905089 0.97147064
H 4.98105948 6.42096686 -1.02168804
H 1.23422902 7.47892515 -0.24439528
H 10.28972180 1.55696393 -0.60282137
H 0.04564497 4.52553589 -3.81218680
H 5.92036838 3.56655325 0.90529072
H 3.85011794 0.39761072 -0.04979278
H 2.15258149 7.93655105 -2.33773619
H 8.88119687 0.96605143 -0.63735253
H 0.67324534 1.82267594 -5.20518861
H -0.14246329 6.86571274 -0.14100568
H 3.34596875 4.85283326 -1.00835271
H -0.04880487 -2.11600613 -1.85894827
H 3.60362276 2.26399596 -0.95761096
H 7.18078132 2.50096852 -5.28364066
H -0.64954339 4.29462315 -2.45200326
H 0.27080786 0.28096727 -5.40632053
H 2.80301301 1.34271992 -1.87560337
H 5.28726032 0.28857419 1.92208571
H 4.86429164 3.52224648 2.83695876
H 5.26238660 4.25308769 -4.88925480
H 5.12209477 3.53594259 4.38676343
H 5.01235331 4.98490931 -3.59374475
H 6.61020374 1.58650369 1.54458961
H 0.83970385 3.87442415 1.47487706
H 5.28595315 1.26772470 2.99637888
H 0.62101544 -0.68030132 -1.71320761
H 0.74834198 0.96640710 -3.13716987
H 1.19759213 6.00099959 -3.40771500
H 8.86262134 0.61908140 -3.83293007
H 7.45622912 1.04560961 -3.22599684
H 0.97557224 5.20654987 0.61156474
H 7.86884488 2.32399863 0.85430568
H 2.55292304 6.33558194 -4.16730281
H 6.48516120 2.71222800 -6.69035103
H 0.29182206 3.21702491 -0.53253759
H 5.41638232 0.99953896 -1.94067739
H 0.63408654 1.54422792 -1.70218701
H 6.56200219 1.36031650 -1.02832083
H -0.80877655 2.15644227 -0.29855339
O 2.10313574 3.22690787 -4.25903486
O 0.81389418 -0.27816180 1.22059936
O 1.90849613 2.95538027 4.16943866
O 0.05131994 2.50631986 2.31599420
O 5.23627941 4.21194296 1.30039454
O 5.55851379 6.78943408 0.52811807
O 2.34042639 8.33243983 -1.47566435
O 4.22340243 6.33229675 -1.66979176
O 3.42567403 4.06607711 -0.49173064
O 4.00151172 -0.11963207 0.82474064
O 9.61856101 1.14374488 -0.02659403
O 0.66666181 6.98263433 0.36710720
O -0.41799097 5.03562828 -3.10778516
O 5.93264243 0.72999220 2.52957531
O 4.60689771 3.09958381 3.69844846
O 3.67268945 1.42486489 -1.41110139
O 4.49062572 4.61455301 -4.30843337
O 0.19851857 1.03151484 -4.80759764
O 0.23808653 -1.43996285 -1.18078046
O 8.08542344 1.20671052 -4.00331858
O 1.87768211 6.71596634 -3.61278989
O 6.42946835 2.97243107 -5.74888890
O 1.12135553 4.21908070 0.55176920
O 1.23538376 1.04564060 -2.24803089
O 6.89453288 2.06256110 0.62780501
O -0.34315946 2.60221123 -1.00665682
O 6.40539072 0.84365107 -1.85364231
81
i = 0, time = 0.0, E = 0.0;
H 8.97898030 1.49472437 8.06279157
H 8.32808694 2.91601519 7.50491468
H 11.63447365 5.82084325 4.25325222
H 1.60802987 -0.22810280 2.50077105
H 8.34179880 2.59805794 2.63057000
H -0.13435644 0.08864276 4.07107160
H 11.99281759 5.09417161 5.59441644
H 7.07524260 -1.04301012 4.29021067
H 12.86648637 3.01828637 4.15558768
H 9.41766623 5.44007026 5.72708815
H 3.09112173 -0.67602808 1.98788585
H 0.96454469 1.29446425 3.70704050
H 9.78532975 2.01346673 5.97260934
H 7.30605601 1.14520516 1.24321213
H 9.37370586 3.03268776 3.82759483
H 7.76565058 -0.03932474 3.46581181
H 8.69649251 1.08460721 -0.29007169