51
i = 0, time = 0.0, E = 0.0;
H 17.98945578 19.96157169 20.56750981
H 19.53951458 22.22875435 18.46655044
H 18.10541210 22.53753067 18.05638456
H 20.12878285 15.87097183 21.62954228
H 19.71227740 17.41708351 22.06550684
H 22.42855595 23.02658632 21.70012525
H 21.02770791 23.28510919 22.47490031
H 18.37174156 19.15536357 22.45622502
H 19.12208965 18.73481748 23.71132075
H 23.35829329 20.07902212 19.83325507
H 23.61141964 18.99779010 20.99316684
H 20.43891310 19.81942151 25.06256677
H 19.30296670 20.32197600 25.94733042
H 21.96936886 16.97789153 18.54565335
H 21.94498551 15.56703951 18.75601109
H 21.96516929 17.33469796 21.54287889
H 22.96355524 16.63094904 20.66218600
H 22.58974915 18.15138105 24.35137590
H 21.64662644 19.26349692 23.45720871
H 19.83860094 22.17578242 24.31811970
H 19.21171699 23.57944207 24.17100948
H 22.11039830 21.22497089 18.78434626
H 21.79662277 19.60271800 18.78089608
H 21.54263432 23.58769345 18.58446292
H 21.01629090 23.14571807 19.90976729
H 20.39624531 17.49094886 19.66547305
H 19.58440071 18.31787111 18.56835524
H 24.85954719 22.79204775 21.69263107
H 23.94862066 21.59879152 21.11956595
H 21.73028266 20.10514591 21.47527359
H 20.91472993 21.16113013 22.14199994
H 17.09941503 19.31681615 18.43185782
H 18.25785402 20.38962501 18.26316503
H 19.12764776 20.51795853 21.43264500
O 18.10760706 20.40113598 21.45631756
O 18.73737378 21.79934377 17.95174008
O 20.14164035 16.79384834 21.27371286
O 21.46283197 22.82406832 21.69699518
O 18.70416034 18.31377867 22.89416806
O 23.57476193 19.96896492 20.82973774
O 19.54657951 20.27114313 24.94071809
O 22.61057756 16.26401563 18.89704159
O 22.94376836 17.35807810 21.35569991
O 21.91931527 18.92258177 24.37258776
O 20.05883414 23.14673305 24.04337695
O 22.44168647 20.32378577 18.48882315
O 20.77339196 23.11401911 18.95946547
O 20.51789168 18.03580779 18.88165451
O 23.95411254 22.62278717 21.37075812
O 20.98706088 20.14992203 22.11741795
O 18.03840286 19.41904910 18.66294825
51
i = 0, time = 0.0, E = 0.0;
H 18.29460914 18.43848270 20.51558564
H 18.73145244 22.88662628 20.05800148
H 18.43674899 23.52216880 18.66802865
H 21.40434446 16.37152583 21.29736586
H 20.04836421 16.82719131 20.66694366
H 21.50959705 22.43578584 20.78604614
H 22.28702921 22.84862267 21.98518304
H 19.08624349 19.66265384 22.52839086
H 19.11223149 21.10136951 23.04928507
H 22.93480479 20.77342826 19.40186445
H 23.48591258 19.38832034 19.69140166
H 22.44129389 21.10467641 24.95897615
H 21.14160365 20.93215920 24.24668018
H 19.95794271 17.99116143 17.41294878
H 20.73917724 18.30160969 16.12303808
H 22.13041470 17.64856749 19.50513806
H 21.96890793 18.24991676 18.04192895
H 24.51856196 19.76613980 23.72582145
H 23.13442681 19.72793847 23.07190400
H 20.35042226 20.67402356 26.52790904
H 19.27501336 19.90864895 25.92091345
H 20.65944196 21.86607438 18.23920061
H 20.80316381 20.32437332 17.68791775
H 20.01330991 22.64204625 21.97511795
H 18.48791270 23.15545934 22.45684004
H 20.31016916 15.75950050 18.58598347
H 18.99818499 15.47330978 17.87307061
H 23.94467294 21.69443448 22.57590762
H 23.91530130 21.67305137 21.04369347
H 20.99477487 19.69355217 22.26697964
H 22.10502164 19.78744565 21.19003111
H 17.59542263 19.81434098 18.63803224
H 18.71862967 20.66275436 19.44927231
H 17.61984524 17.51026989 21.61887732
O 18.52066922 17.99972402 21.41085982
O 18.96502672 22.84518849 19.09754453
O 20.86183213 16.32497075 20.52407942
O 21.34313210 22.88588686 21.69527917
O 19.28736217 20.18063784 23.36482705
O 23.38736183 20.27224302 20.13955227
O 21.50794761 21.44604127 25.05519546
O 20.64954253 18.60666856 17.05033730
O 22.63109075 18.01815237 18.74335550
O 23.64186475 20.24337504 23.82313049
O 19.48310199 20.30292541 26.80761304
O 21.25009465 21.05903718 18.24260119
O 18.93892096 22.50018530 21.89499655
O 19.93220332 15.80093314 17.70141075
O 23.97575849 22.32414249 21.80584009
O 21.86197708 19.28705189 22.01510738
O 18.43940850 19.74218646 19.18906038
51
i = 0, time = 0.0, E = 0.0;
H 17.91489062 20.05730772 19.79085924
H 20.16695553 23.08904084 19.91372443
H 21.47723202 22.80496378 19.14127967
H 20.05025693 15.48653537 22.57388639
H 20.05920374 17.07616225 22.29724503
H 22.65847504 24.58995470 22.64917697
H 22.22726785 25.90833429 22.01052906
H 18.78878056 19.03287079 21.74892250
H 19.51473938 19.02544879 23.17184340
H 21.09993515 19.89722670 20.01977636
H 22.23761090 18.72152788 19.99840377
H 22.46562580 18.37531999 24.01330513
H 22.21757246 19.86658643 23.91780453
H 18.43794256 17.77711374 17.73977348
H 19.13674786 17.67129839 16.34780127
H 21.10995780 16.54166198 20.67080217
H 22.12608146 16.23081417 19.58446712
H 23.63408452 16.49802554 23.15066905
H 22.15079410 16.84450095 22.64987914
H 20.57545129 19.53764360 24.76854607
H 19.92481452 20.94826876 24.50280711
H 23.20885164 20.88118921 17.39397479
H 23.27986507 20.32270010 18.75700516
H 20.69354679 24.11558224 21.96864558
H 19.16295888 23.74736248 22.18787054
H 18.03255020 17.80525940 20.08034323
H 19.39146235 17.19675053 19.66087962
H 23.07948745 22.46872528 22.63619670
H 24.44108759 22.95506744 22.33411162
H 21.34026666 21.27240735 22.25124628
H 22.55552323 20.39674726 21.67499715
H 19.03416708 20.01430867 17.82819820
H 19.34665827 21.48108809 18.32720604
H 16.63539006 19.73325706 20.71867448
O 17.60667921 19.62996952 20.67313656
O 20.52629634 22.99798391 18.94921035
O 20.68854533 16.19994545 22.36065464
O 21.84831774 25.18549816 22.49498435
O 19.55926109 18.59239120 22.22143148
O 22.07835147 19.68075919 19.99308996
O 22.20431534 19.15619327 24.56790608
O 18.71965240 18.33483790 16.94778342
O 21.50203883 16.94299406 19.81053909
O 23.03262520 17.17954204 22.88630176
O 19.71186252 19.99157142 24.44926860
O 23.84066160 20.43213422 17.93769808
O 19.91093275 23.52433073 21.63160176
O 18.41879070 17.13711983 19.53125028
O 23.70400998 23.21857967 22.81214971
O 22.27138665 21.00458987 22.42973132
O 18.86321497 20.64644502 18.56815037
51
i = 0, time = 0.0, E = 0.0;
H 18.50325086 20.36743357 24.13855598
H 20.13769268 22.65559439 20.17025126
H 19.19871233 22.55868822 18.87352528
H 19.66334674 18.24461854 19.84391419
H 19.21356028 17.23657251 21.07507815
H 23.32459983 22.72710750 23.43013342
H 22.97323305 23.83301416 24.46480468
H 18.05824945 18.08004750 22.72909480
H 18.60096692 16.71011671 23.16752470
H 23.36114003 20.49686413 18.41393945
H 23.48919811 18.95346623 18.76033406
H 21.67322589 20.43953131 24.82605351
H 21.97237982 22.04053395 24.63157447
H 18.96912078 17.54672063 16.50839305
H 19.64729464 18.60013339 15.64074716
H 22.70641452 17.51509660 20.60794295
H 21.66828283 17.01823948 19.82440460
H 20.63863280 18.71354628 23.30133389
H 21.70758937 19.56493563 22.70669400
H 20.03426334 21.46331254 24.52606448
H 18.60689624 22.31108019 24.69271156
H 22.05952683 21.87407812 16.52536907
H 21.25061681 22.06614504 17.88219325
H 21.19236747 23.19296672 22.30201944
H 19.94068119 22.29069874 22.41443558
H 19.61956041 16.70097422 18.55653300
H 20.66934346 16.08757819 17.60526246
H 24.55474208 20.94165239 23.98693968
H 23.86568959 20.92682783 22.54931568
H 21.77816861 21.14469716 21.12790474
H 22.86815326 20.14672891 20.60680022
H 19.06854416 19.15642966 17.82907036
H 19.66715366 20.34845636 18.63996704
H 17.62522864 19.52820217 25.31809755
O 18.15524264 19.44668772 24.52876376
O 20.09045176 22.38390730 19.17977808
O 19.64796874 17.23965960 20.19129222
O 22.51449808 23.26120724 23.82934337
O 18.46376921 17.29003592 22.42125666
O 23.57799549 19.87501304 19.12828317
O 21.33495384 21.38121070 25.13587111
O 18.86318700 18.46999742 16.18924751
O 22.67123978 17.08725967 19.74525116
O 21.48565788 19.04255902 23.55260797
O 19.07666422 21.78313247 24.00101038
O 21.99017132 21.54944192 17.43808260
O 20.64943778 22.63835132 21.71600518
O 19.99925813 16.76871537 17.65342343
O 24.33496943 21.49023023 23.20363236
O 22.42265608 20.46707812 21.44894708
O 19.20052998 19.48439083 18.82673073
51
i = 0, time = 0.0, E = 0.0;
H 17.54375840 20.66602778 21.73810699
H 19.46652961 24.15940852 20.36224453
H 19.82377152 23.04280238 19.25316998
H 21.42273955 16.51290669 21.38175879
H 21.99394249 15.11751850 20.69400350
H 22.28034138 23.35158269 22.47193016
H 22.87308909 24.76546600 22.13808247
H 18.21706314 19.06027465 22.40529555
H 18.16386731 18.18276365 23.78422979
H 24.43904003 20.04272885 18.43702528
H 23.39399032 18.82150184 18.72395985
H 21.59720073 18.98772936 26.30155172
H 22.49560458 19.96916489 25.47141348
H 18.01194319 20.18064903 17.73011426
H 16.54740226 20.52686747 17.90284112
H 22.00000667 16.68605639 19.34629828
H 21.69922243 17.74697207 18.27832022
H 20.74157617 18.20604417 22.49855477
H 22.14525482 18.48435536 21.85517629
H 20.70544693 20.76208665 24.88304743
H 19.67665728 20.24006659 23.88680487
H 20.52252160 20.96148532 19.72280051
H 21.71716725 21.20790809 18.90206128
H 20.86611961 22.61311489 21.26492166
H 20.81835541 21.63604075 22.52241224
H 18.20581228 18.14677830 18.79050579
H 19.00318972 16.80934327 19.02450162
H 23.39152242 21.65073056 24.06403454
H 23.50370053 20.23398710 23.25564485
H 22.56505204 20.76216541 21.50937656
H 23.69628137 19.85512304 20.67601241
H 19.99635921 20.75933810 16.68971475
H 19.89911695 19.58165949 17.65917304
H 17.32908855 20.09092743 20.32465052
O 17.04250338 19.99174983 21.28829930
O 20.21528954 23.64559883 20.06053811
O 21.34965053 15.87943951 20.57773338
O 22.62277228 24.18567720 22.90803485
O 18.76697582 18.72248618 23.18365051
O 23.61399991 19.74374229 18.90026481
O 21.75243982 19.91850367 26.13126328
O 17.29766461 20.07489629 18.38504764
O 22.42369699 17.18319806 18.56673609
O 21.60530083 17.83026480 22.32591298
O 20.36722441 21.00688432 23.95568191
O 20.74454832 21.28253637 18.83722899
O 21.36741757 22.01649261 21.80804186
O 19.15663567 17.80599282 18.96799550
O 23.54063751 20.65821262 24.17687497
O 23.14762519 19.94343384 21.55491640
O 19.56224587 19.87438756 16.79613731
51
i = 0, time = 0.0, E = 0.0;
H 19.31364708 18.60012661 20.14344253
H 20.29527160 21.81916282 19.58492818
H 19.96064863 21.39991113 17.99308869
H 19.88751168 16.95803463 23.34014204
H 19.44927189 18.54889578 23.28489312
H 23.00445650 23.41783785 22.38258000
H 22.26660098 24.75798630 22.28731651
H 18.22789177 19.59001970 21.71336698
H 18.55848592 20.54934060 22.97552070
H 23.10663938 18.94340184 19.47980787
H 24.00124482 17.90918551 20.28495144
H 21.44110810 20.15176014 24.92797506
H 22.23758672 21.41238018 24.56688574
H 21.84401412 19.59271267 15.62681025
H 21.61625746 19.15576737 17.10888121
H 20.55974890 17.69043455 21.42128000
H 20.02127282 16.58336161 20.48518825
H 21.56753183 18.37349894 24.00761487
H 22.57668241 19.34776985 23.31484995
H 20.36592915 21.77150014 24.38034884
H 19.00558013 22.50694331 24.31902233
H 21.15526764 18.55206483 19.27565938
H 21.37798188 20.15475252 18.89030856
H 21.31758763 22.81010910 21.22382765
H 20.20201471 21.94788640 22.07658553
H 17.24369994 17.54333829 20.13581975
H 17.50850889 16.28977237 19.17433638
H 24.59023901 21.92882244 24.05590838
H 23.66189635 21.47624837 22.79904542
H 22.20752732 20.86424612 21.41928235
H 23.31633990 19.75501102 21.12289544
H 19.35588058 19.34532265 16.35643995
H 18.03417928 18.89460023 15.94622238
H 18.61571408 19.48509221 19.08622629
O 18.58927125 19.29532103 20.04690601
O 20.67640685 21.59933662 18.63275804
O 20.22247307 17.88921151 23.37728034
O 22.56032052 23.96200447 21.78286659
O 18.30783612 19.64943209 22.69908621
O 23.92959380 18.86141380 20.07675102
O 21.40082585 21.16087563 25.03242584
O 21.17776702 19.15824156 16.21356055
O 20.54313129 17.40281041 20.44750499
O 22.42285921 18.92184780 24.19656746
O 19.52262252 21.86735131 23.76325293
O 21.75415191 19.24701114 18.85697120
O 20.63213081 22.12681701 21.18753992
O 17.59424199 16.61256619 20.06304798
O 23.74219733 22.14607952 23.54066099
O 23.00216460 20.41569415 21.85362805
O 18.42671610 19.55422864 16.57531696
51
i = 0, time = 0.0, E = 0.0;
H 17.46613392 21.00309188 21.12059960
H 20.52896578 23.12172997 18.74555199
H 19.89517529 23.09186521 17.41302670
H 21.50928393 16.04944509 20.15817419
H 20.32761519 15.07724952 20.34609488
H 22.05940836 23.80586801 23.14266721
H 23.39056998 23.12306969 22.75477962
H 19.04044562 17.21954310 21.41216274
H 19.08483053 18.75564585 21.46788181
H 22.95706956 18.00532534 20.76144795
H 22.23362376 18.18899770 22.14950475
H 21.00381840 19.25657576 24.90148059
H 22.07603728 20.38386188 24.83807916
H 17.45241804 18.17586240 17.30651450
H 18.83867601 18.57076115 18.05893943
H 23.83747764 16.83570485 18.98113056
H 22.57517319 17.57889547 18.39191914
H 20.14375273 17.89189646 22.97980220
H 20.86236830 17.14916918 24.18046226
H 20.23146554 20.73636707 23.55569991
H 18.96123327 21.32337822 22.59627762
H 21.35441856 19.37187502 20.89697360
H 20.28867340 20.52870489 21.42230231
H 22.27067382 23.17286166 20.61258083
H 21.64586486 21.86745362 20.19133154
H 20.32418053 18.82045701 19.25880814
H 20.21320569 17.23489040 19.17473255
H 24.34841885 21.06249309 24.47393574
H 24.09042788 21.22837142 22.93245227
H 23.59558486 21.44124139 20.52463652
H 23.76976859 20.03402591 21.08988533
H 18.12872816 20.59452743 18.77755285
H 18.68060631 22.04750905 19.01646873
H 17.11442444 20.20585303 22.39820637
O 17.20958055 21.12327962 22.07712588
O 19.62692758 23.35298306 18.39296438
O 20.52931143 16.00363379 20.25979085
O 22.87117110 23.89002404 22.56381089
O 18.86471601 17.95292998 22.05401734
O 22.71145617 18.66618160 21.42559457
O 21.20081755 20.19466159 25.19499339
O 18.02667509 18.98185340 17.54892605
O 22.93346265 17.11446960 19.18816389
O 21.03439605 17.72917876 23.43049693
O 19.92081982 21.13170669 22.71011517
O 20.63637208 20.01828606 20.56596638
O 22.27093686 22.52078474 19.85051558
O 20.24170668 18.10097809 18.62483955
O 23.65074870 21.33153269 23.84596615
O 24.26493491 20.87552837 21.02215352
O 18.35907068 21.20813319 19.53772271
51
i = 0, time = 0.0, E = 0.0;
H 18.25478143 22.57766248 19.60930629
H 20.62099111 21.78109943 19.43756345
H 21.00966442 21.49155199 17.97786192
H 21.47830459 15.45437088 22.68267355
H 20.26232311 16.15746127 21.90061000
H 21.78465536 23.95347764 22.60829864
H 20.20958851 23.83214143 23.11119180
H 18.09347734 16.54685455 21.00487283
H 19.33823023 16.75498832 20.12143773
H 24.95100691 20.42092722 20.38344257
H 26.22324539 20.00050478 19.65002582
H 20.94170118 18.84737001 23.81892231
H 19.62107272 19.48062537 24.43976026
H 16.38858963 17.90660225 22.11879505
H 16.43672560 18.23713057 20.55969989
H 22.17473155 16.93718016 21.04769282
H 21.71485025 17.61558969 19.69012699
H 22.88399936 18.02148601 22.99203630
H 23.07673155 19.51513791 23.48581394
H 19.41173600 20.11003752 22.33881943
H 19.27153297 19.53592033 20.93230777
H 22.91871322 19.00593454 20.41798139
H 22.83890393 20.44844019 19.63229815
H 20.02456197 23.37478785 21.09422935
H 19.40875680 21.80979878 20.91930510
H 20.39280235 19.32243482 18.87673242
H 19.03561988 19.00542151 19.06168873
H 24.36814360 24.01498811 23.58521895
H 23.86704840 22.91905092 22.67929452
H 23.70740858 20.81990179 21.88184308
H 25.09578701 20.90187794 22.35018032
H 17.23953036 20.59873763 18.98851243
H 16.88480854 19.33066887 18.14192423
H 17.18292236 23.12249378 18.58573516
O 17.45957531 22.26601326 18.99698601
O 21.08967804 21.13464099 18.89602427
O 21.27384544 16.27505953 22.16086763
O 20.85187246 24.13542954 22.42553805
O 18.99049856 16.18751378 20.88555813
O 25.88529236 20.72797783 20.20413021
O 20.04322849 19.29815679 23.54650372
O 16.54435370 17.40845463 21.22989137
O 22.51423828 17.49105431 20.23260392
O 22.86501890 18.57851094 23.82955722
O 19.24521131 20.41253691 21.41455531
O 23.04316630 20.01328866 20.47105857
O 19.67193591 22.69509080 20.36011323
O 19.90220175 18.51016234 19.10754846
O 23.68423312 23.92693960 22.90500792
O 24.18413479 21.10276125 22.67104593
O 17.30544878 19.59794737 18.95024209
51
i = 0, time = 0.0, E = 0.0;
H 17.43626160 20.58871494 20.14741721
H 19.91582804 20.77363901 19.08950027
H 20.71229700 21.67619858 20.05183361
H 19.20290449 15.94777960 21.23596001
H 19.18287266 17.47698168 21.78715983
H 20.60034137 24.54263717 20.65746972
H 19.60518570 23.95383520 21.55170836
H 17.51854003 18.75151326 22.56748024
H 18.66359039 18.67223155 23.64234345
H 24.82136396 19.48250136 19.97941014
H 23.23412857 19.83609427 19.55085169
H 22.61351642 19.76894642 23.92683682
H 22.71010403 21.10975153 24.72892864
H 19.97146873 17.12862339 15.57906358
H 21.02642006 16.20782740 16.10414530
H 22.66197401 16.17587207 20.33296228
H 21.42278439 16.88701200 20.92178322
H 23.57917219 19.66521799 21.66708850
H 23.07649303 18.27208022 21.98992439
H 20.33261810 20.79849851 24.39309269
H 19.26058604 21.93769828 24.55828624
H 22.13338962 18.01650203 19.26328110
H 21.43028081 19.37053624 18.58438869
H 18.50672061 21.73579408 21.36901328
H 19.49905748 21.45106375 22.39856954
H 19.33114870 17.26774688 18.13356025
H 19.69110688 17.60035099 19.70182733
H 24.14188278 22.65910467 23.72740094
H 25.32263852 22.12150385 24.52886326
H 22.89362228 23.01690914 21.61501769
H 23.90059663 21.79386326 21.22175471
H 18.50054171 19.20903233 18.73673268
H 18.01063395 20.23860479 17.69824109
H 16.39156170 21.38523890 20.77447143
O 17.14642438 20.84410017 21.07978736
O 20.79092142 21.19413792 19.17060172
O 19.67083445 16.83606579 21.19962525
O 19.92800934 24.84818424 21.29918960
O 18.12044011 18.09982976 23.03056709
O 24.09093203 20.13178135 20.07312718
O 22.06271215 20.36844024 24.52729135
O 20.16252026 16.57711445 16.33830621
O 22.42929967 16.99972268 20.78417769
O 23.24257982 19.12881786 22.47935181
O 19.37697369 20.97952369 24.34507111
O 22.24072712 18.79565323 18.64854261
O 19.38753957 22.09658154 21.63314532
O 19.56165657 17.97307006 18.77575580
O 24.37879021 22.38111189 24.65344785
O 23.74084118 22.60204751 21.86292046
O 18.21084351 20.17833654 18.63265868
51
i = 0, time = 0.0, E = 0.0;
H 19.04752197 19.33826014 19.38635856
H 22.33076772 22.71137881 19.35029763
H 22.02924484 23.14932268 20.75535973
H 21.34412408 16.53275532 22.28034367
H 19.84382691 16.32973466 22.85882686
H 20.73751790 24.87005576 22.62209576
H 20.82905442 23.68488715 23.51271839
H 17.73729601 17.45725901 22.80497873
H 17.13959423 16.14106187 22.26771050
H 23.00669400 20.11980512 19.29624538
H 23.86383419 19.31121096 20.30766077
H 20.84135847 20.97256520 24.21345073
H 21.53669179 21.87574169 23.01123095
H 18.85130890 15.34073071 15.12981650
H 20.45239046 15.49380662 15.00801174
H 21.76088162 16.25127941 19.90758445
H 23.17057309 16.38302612 20.50313894
H 21.23933193 19.09717646 25.40129440
H 20.77851392 18.38978156 23.93173618
H 19.16997313 19.58131201 22.82723262
H 18.75166637 19.04824764 21.35769674
H 22.56507905 18.21433377 17.96117987
H 22.05072080 19.54193364 17.40250917
H 20.48142390 25.41993920 19.58416657
H 19.00261365 25.52134950 20.08597039
H 20.32356640 17.64342318 18.78258118
H 20.92793389 16.26016505 18.03320017
H 22.27358042 22.75176540 24.99747459
H 22.77757487 24.16754533 24.84511094
H 23.57944752 22.65506932 22.61916830
H 23.19055961 21.50952616 21.67093311
H 19.14256604 21.70651701 18.33396450
H 19.68752561 21.61737318 19.65286088
H 18.18650803 18.00126107 19.42629059
O 19.09037355 18.37984460 19.61051025
O 21.67416758 23.24629840 19.84954386
O 20.69908510 16.74570398 23.00731048
O 20.87129150 24.64795554 23.55199302
O 17.79388719 16.49372465 22.93300430
O 23.28527284 20.11966995 20.23942573
O 20.87901433 21.85442982 23.76354850
O 19.68665959 15.32774993 15.66078769
O 22.31374212 15.96536338 20.71529261
O 21.03864840 19.20406382 24.46583821
O 18.45217712 19.08493019 22.33011515
O 22.87831929 19.14297608 17.76033041
O 19.69955598 25.97715751 19.63434899
O 21.17326161 17.07699626 18.49384646
O 22.96625780 23.35825815 25.36512896
O 22.80109638 22.27188439 22.18435060
O 19.15420294 21.03861523 19.09969172
51
i = 0, time = 0.0, E = 0.0;
H 18.07336895 19.99638590 21.68252717
H 20.10025375 21.75566107 19.90339463
H 20.53601792 21.39018079 18.36082494
H 21.64751804 15.89280555 22.87770875
H 20.33214199 16.54919172 22.36262747
H 22.81398782 23.04492929 20.55996453
H 22.74313366 24.42533176 19.84748615
H 18.72846163 18.27254291 22.17763368
H 18.03365707 16.82511656 21.66408660
H 24.14920455 22.34703410 16.56416566
H 23.96647977 20.92583403 17.21252773
H 21.45768890 20.18253400 24.09127392
H 21.85124575 19.98080325 25.64415212
H 16.20619610 18.48110083 18.47595897
H 17.75439664 17.93825088 18.48262849
H 21.60511814 17.22254249 20.26211948
H 22.11055395 16.36546782 19.02532657
H 21.47742354 18.17367584 22.62296731
H 20.45903208 19.39136843 22.31121071
H 19.42923549 20.83217537 25.28074322
H 18.44711273 21.85529706 24.88541648
H 22.73777960 18.82506314 18.75427641
H 22.14419502 19.92753230 17.90481338
H 20.58241480 23.21295658 22.09091655
H 19.47833631 22.12910508 22.20076951
H 20.57655433 17.97271961 18.65698385
H 19.53591289 19.20141237 18.69888498
H 25.07114419 20.54497408 24.64169535
H 25.01740028 21.80171119 23.75102520
H 22.82153009 20.79719785 21.42616538
H 23.49437900 20.65666888 20.00805277
H 17.03460340 19.31401314 19.96862552
H 17.77090388 20.70358949 19.91127078
H 18.47858000 20.17347433 23.24644819
O 18.78244846 19.78046079 22.34628743
O 19.97636941 21.09545274 19.13611896
O 21.27840507 16.44287470 22.13840775
O 22.50113121 24.00590436 20.66352559
O 18.90574131 17.28104483 21.80360505
O 24.41487266 21.80308616 17.29786697
O 21.33191659 20.53568795 24.97889325
O 16.91400038 18.09803513 19.03588724
O 21.99184939 17.24142485 19.37974120
O 21.42631066 19.19775362 22.36924555
O 18.47754910 20.89390740 24.96561399
O 22.92084805 19.78275957 18.41550730
O 19.96155085 22.67625996 21.55002837
O 19.70107980 18.27313785 18.25736345
O 25.32741771 21.49172240 24.62148742
O 23.53448541 21.14971732 20.88189261
O 17.13611921 20.18519227 20.48176865
51
i = 0, time = 0.0, E = 0.0;
H 16.57801296 17.44342711 19.21777333
H 19.32251284 22.32040309 18.16226763
H 19.98940252 22.11926531 19.52577810
H 20.21081152 16.36930696 22.27387070
H 21.17928436 15.39658425 21.93844245
H 19.60503058 23.88416443 23.40921881
H 20.57046803 23.26685762 24.52321428
H 17.66490782 17.36015028 20.92905903
H 17.31042849 17.34048392 22.54093151
H 23.62368275 21.76400336 19.37906711
H 25.11923886 21.15450162 19.52122977
H 20.61137475 18.93750589 25.11085382
H 20.50644908 20.48661935 24.93224012
H 19.59319687 17.78252758 17.59296643
H 18.66495053 16.85831600 16.60813266
H 22.27897136 16.36488904 20.27102736
H 23.57906588 16.36719606 19.67712487
H 22.13029864 21.36427065 23.91912282
H 22.22112577 22.40260481 25.24875007
H 19.37389736 19.98857471 23.32607974
H 18.53495709 19.28125735 22.13077399
H 21.68825829 22.24394599 18.25157273
H 22.48852911 23.48353477 18.68822186
H 20.92391473 22.20927148 21.40386718
H 19.53178527 21.51756782 21.56172917
H 21.62867511 18.64143137 17.39808409
H 21.57867444 17.39950156 18.42543762
H 22.56296999 24.03422222 23.61190573
H 23.32044879 22.77874328 23.19296209
H 22.16297465 20.29186134 21.95636977
H 23.35975971 21.04974869 21.62118371
H 20.91281140 18.98455329 19.88709072
H 21.39840101 18.31488999 21.20940285
H 17.96308964 17.00624790 18.60454974
O 17.43951719 17.06938582 19.45478110
O 20.04639268 21.84598956 18.59743430
O 21.06402758 16.37577288 21.81953358
O 20.14803338 24.13020040 24.13264793
O 18.04267624 17.42584358 21.86562801
O 24.22466977 21.16720127 19.99653797
O 19.96250540 19.67902871 24.91088342
O 18.67526864 17.57489405 17.22650087
O 22.67021007 16.16588112 19.41897391
O 21.63568522 21.84823816 24.67166271
O 19.00273717 20.10786554 22.42887239
O 22.64822590 22.60007228 18.25606203
O 19.97289224 22.29776871 21.21233139
O 21.06671581 17.98123416 17.86370616
O 23.51107940 23.74661741 23.44994887
O 22.76665546 20.90531314 22.40594091
O 21.60888608 19.06983248 20.58056863
51
i = 0, time = 0.0, E = 0.0;
H 17.17782875 19.75269034 18.98709616
H 20.00820656 21.71111186 18.99280260
H 20.57445036 20.54890649 18.08693596
H 17.73004868 16.13121407 23.31997246
H 18.57381961 17.14085572 22.43332100
H 22.18758886 23.98281595 22.87946684
H 21.08909273 25.10366020 22.73659868
H 17.66983731 19.18612530 21.54312546
H 18.78840403 19.68553752 22.61204485
H 24.40328378 20.18410567 19.16874364
H 24.30131390 18.96167272 20.12096287
H 21.92063116 18.82976710 23.32736329
H 22.68197347 20.24172326 23.23813749
H 18.83336140 15.26425450 20.52180293
H 19.76686054 16.53296144 20.12832759
H 22.38958711 18.25479540 19.62723898
H 22.48636216 17.42681430 20.88941910
H 20.61206411 16.50297848 22.64109414
H 22.11490007 16.24153580 23.14807553
H 20.56373477 20.71732704 23.26433701
H 19.93258641 21.89707744 23.94073146
H 21.97538816 22.27610973 20.24890119
H 23.13932618 23.22292272 20.84787323
H 20.56263055 23.26526794 20.95661266
H 20.02210066 21.87734422 21.34551613
H 19.80708793 18.74141598 20.64984484
H 19.56051307 17.97648809 19.27557912
H 23.68798586 23.25636400 24.27391915
H 23.84480661 22.61573040 22.84676185
H 23.49758890 21.43689178 21.50739554
H 24.71492497 20.51394474 21.84195436
H 18.74557624 21.08471265 17.73860550
H 17.30683977 21.50227525 17.70132983
H 16.71635942 18.25085794 19.52678137
O 16.61720516 19.19812232 19.64355300
O 20.28042020 21.47638092 18.09151975
O 18.53294428 16.16413040 22.72453854
O 21.25743399 24.20678272 22.44922969
O 18.62890134 19.08908951 21.83945631
O 24.94568445 19.76724702 19.89833835
O 21.88529650 19.78378402 23.54897673
O 19.15477332 15.83148657 19.78203680
O 22.90891816 17.63081464 20.03668515
O 21.59570878 16.79606846 22.55864350
O 19.81447581 21.32683363 23.12619037
O 22.94018541 22.37297310 20.42756903
O 20.24528809 22.41385594 20.59140823
O 20.21188235 18.44004682 19.75877940
O 23.74731565 23.52803907 23.35298246
O 23.95349052 20.97450661 22.28769365
O 17.81673902 20.73204221 17.90233883
51
i = 0, time = 0.0, E = 0.0;
H 18.36230865 18.22158023 19.44459035
H 21.97111504 22.93089349 20.61417524
H 20.76882232 21.92008331 20.52384071
H 21.98015175 16.13881416 23.08836991
H 20.57300872 17.10787406 23.01107784
H 24.06111532 22.26717712 21.79217608
H 23.75614124 23.76528531 21.91699351
H 18.70421828 17.52793987 22.08923502
H 18.70801167 18.17277670 23.44662596
H 23.60979487 21.05370052 19.13043653
H 22.86873362 20.12085592 18.10511717
H 20.89923304 21.29576366 25.28232103
H 21.87654105 20.28407084 24.68100889
H 17.72696950 16.83865318 17.00209144
H 18.61137024 17.99039095 17.47599639
H 21.54666044 18.32872053 21.44256970
H 22.29326833 19.26394330 20.39988743
H 23.57186649 18.88867060 24.77196598
H 22.63103443 18.23289849 23.68161523
H 18.85524444 20.35762209 24.46221095
H 18.30016232 20.22168826 23.06168192
H 21.08584187 21.26385753 17.23190303
H 21.37996623 20.58989112 15.85902479
H 20.40541451 23.38515792 23.06891504
H 19.65314452 22.17860511 22.75768867
H 20.20197424 18.95363509 19.17670627
H 20.42804358 19.01930204 17.59859809
H 24.75466017 19.85373170 21.11958408
H 24.41916604 20.04759631 22.64429925
H 18.74488642 20.35699898 20.74211504
H 20.11764079 20.10111127 21.52894921
H 19.53008132 23.00013430 17.69384541
H 20.65508609 22.86831702 18.73565022
H 17.07243120 17.80319456 20.16806637
O 17.92718449 18.32536905 20.34045402
O 21.01638386 22.86040881 20.34620664
O 21.65001867 17.03829561 22.99239020
O 23.45380400 22.97084413 21.45889145
O 18.96994025 17.29450874 22.96332845
O 23.41907473 20.06349314 18.97835145
O 21.29083840 20.42245341 25.48625586
O 17.67573106 17.77696680 17.19572542
O 21.44949167 19.08913407 20.86538501
O 23.22459214 19.01035657 23.85582597
O 18.23557087 19.77241926 23.96248205
O 21.35573383 20.38141760 16.79540735
O 19.97587590 22.67314874 23.58655463
O 20.02392360 18.44767287 18.33961835
O 24.98289195 20.41029805 21.89736507
O 19.27792385 20.62913785 21.54220870
O 20.43523916 22.56422029 17.83053372
51
i = 0, time = 0.0, E = 0.0;
H 17.77950186 19.11929268 21.70346052
H 19.94386050 21.96436500 19.78603145
H 19.44986098 23.08823493 18.83432264
H 22.78331896 16.39240741 23.14620521
H 21.47012326 17.08808122 22.71944191
H 23.38727594 23.03788500 22.03775528
H 21.88121923 23.08205796 21.72508085
H 19.09683472 17.87205896 22.62771837
H 19.31440645 16.52509648 23.25179694
H 25.24981030 19.87177881 19.00470863
H 23.88039720 19.61210001 18.35280880
H 20.83518993 22.12893335 25.69692699
H 19.63818597 21.54868012 26.55824622
H 19.43428361 18.02597668 18.36060071
H 18.33717588 18.98789722 17.83967176
H 22.30894841 18.81274092 16.48854561
H 22.61366589 17.56264399 17.32955701
H 22.35129923 20.17991691 24.46234596
H 22.40028090 18.57668686 23.82669698
H 20.36393571 19.91385997 24.19235135
H 19.56933321 21.19344182 24.36648382
H 19.94982466 19.03744054 16.18035750
H 20.82700791 20.44444441 16.13412444
H 20.33145393 21.48826448 21.88019627
H 21.54044899 21.29305534 21.00564738
H 20.77369875 19.30002135 20.29470079
H 20.17666685 18.04729390 20.98550304
H 23.46087434 21.86954600 24.82697575
H 22.48481069 22.37807087 23.74156466
H 22.83930994 19.37919822 21.82698406
H 23.32316737 20.14492117 20.47567549
H 16.82656025 20.50883172 17.74436959
H 18.14073530 20.98463827 18.66995645
H 18.47120146 19.74508206 22.93422253
O 17.96388371 18.92897271 22.66338792
O 19.20907093 22.18751583 19.10077411
O 22.46114521 17.25188801 22.90006686
O 22.59756373 23.41042078 22.33959946
O 19.69741830 17.01075083 22.46647642
O 24.33726352 20.23656689 19.01569509
O 19.85735265 22.28002827 25.86902754
O 18.97108763 18.24697856 17.49817509
O 22.89209098 18.48587998 17.22051077
O 21.91595576 19.27569726 24.37067847
O 19.64303417 20.45703369 23.67672325
O 20.68619850 19.55541304 15.69618676
O 20.66596168 21.79902012 21.00105131
O 20.43238995 18.44409417 20.05605107
O 22.57170449 21.80516919 24.55929762
O 22.79716922 20.25457187 21.33483669
O 17.59495830 20.17234571 18.33693792
51
i = 0, time = 0.0, E = 0.0;
H 17.69666308 20.43932650 20.13611984
H 20.38373418 23.08661646 20.29711305
H 21.36160133 22.36214903 19.28602240
H 21.31237246 15.71029733 22.57650887
H 20.36752930 16.76123066 22.25404382
H 22.29588787 23.90104396 23.63536896
H 21.13252087 24.21475010 24.63839836
H 18.02961859 17.87869328 22.34761808
H 19.01695612 18.76933882 23.20500552
H 23.25053507 18.64594706 19.86435377
H 23.56799582 19.78996291 18.92531698