27
i = 0, time = 0.0, E = 0.0;
H 18.99738401 17.94235013 18.66872096
H 20.49926486 23.18362923 19.88054120
H 20.32443789 21.60694584 19.67520617
H 22.43883758 18.88416364 18.55219199
H 22.95986737 18.17759939 19.88860755
H 19.66496380 18.28255141 21.30021279
H 18.46778090 19.34447030 21.45173454
H 19.67661933 19.69043195 18.16000428
H 20.14532360 19.74123006 19.65681311
H 23.11454088 19.26926776 22.29039263
H 24.24165551 18.15406128 22.24985738
H 21.18789990 16.51256361 21.02307307
H 21.65560445 17.39645940 22.30645358
H 15.85980176 20.46681062 17.02373523
H 16.56626395 20.76873322 18.20966101
H 21.33222180 20.75979516 22.08698233
H 22.27108830 21.63154792 21.52194657
H 18.11130723 18.54883215 17.61139595
O 18.93656713 18.10796412 17.69409745
O 20.48765640 22.33877177 20.43192797
O 22.90289591 18.07926348 18.91990629
O 19.11283348 18.95386185 20.82260760
O 20.25878748 20.24621377 18.78664792
O 23.27356030 18.30915480 22.06188487
O 20.84930174 17.04403348 21.75648755
O 16.80745071 20.45396942 17.34124337
O 22.29647979 20.95576747 22.20493802
27
i = 0, time = 0.0, E = 0.0;
H 18.13444908 17.72191888 19.11929086
H 20.25143155 18.52564770 18.42258263
H 21.36447773 17.70799997 17.88706944
H 21.24742871 16.95583840 20.10363438
H 22.03655384 15.77200577 19.43989563
H 19.82317088 20.18943134 22.72443179
H 20.19166913 21.21737363 21.76639120
H 19.71892913 18.19689894 20.99679659
H 21.14604533 18.60286417 21.67817843
H 21.89943047 21.50739050 19.23129056
H 22.56567866 22.08239091 20.57594348
H 22.92468192 18.32450148 20.79788786
H 22.40883001 19.84650859 20.51772439
H 17.59798520 21.15349591 19.85018647
H 18.09757079 20.68940646 21.22810375
H 21.00167818 21.22910349 17.27523488
H 21.58154378 19.88622922 17.48050938
H 18.07040525 19.09177701 19.82726357
O 18.66865347 18.38487861 19.60358985
O 20.77566934 18.47555925 17.61185081
O 21.88731449 16.73872233 19.37105891
O 19.42973502 20.99969483 22.34653132
O 20.37131462 17.88595439 21.64707769
O 21.76609628 21.53698179 20.27629789
O 22.60611628 19.14720415 21.26297571
O 17.38113124 20.58037372 20.56505195
O 21.87902504 20.84425920 17.50132954
27
i = 0, time = 0.0, E = 0.0;
H 19.82468291 16.66248284 18.09964964
H 20.72491105 21.23781079 18.05103570
H 20.29231793 22.04331727 16.73859086
H 23.19549334 17.90512341 20.09426794
H 24.48655313 17.01289659 19.74579537
H 18.82310948 19.39132733 21.56794653
H 18.04064401 20.32979969 20.62735876
H 20.46717864 17.74925528 20.37571563
H 20.87651795 18.36805632 21.71392033
H 22.00006624 21.32659226 21.38620681
H 22.73511031 21.75319141 22.71416102
H 20.07870208 19.51337511 23.80689284
H 20.56887207 20.38918767 22.67111932
H 18.62382825 19.83383856 17.90758296
H 17.88118966 18.90641304 19.00609423
H 22.51235470 20.51179569 19.33850596
H 21.40349614 19.45135707 19.85434214
H 19.28469448 17.99516078 18.06935660
O 19.89595467 17.45013718 18.61706159
O 19.91381718 21.45499318 17.47843765
O 23.80829915 17.58042308 19.33504606
O 18.39942656 19.39253498 20.67286267
O 21.22569663 17.85718304 20.94150237
O 21.87003073 21.52595859 22.37974881
O 19.96070517 19.69000474 22.88871045
O 17.95526228 19.06821803 18.02243598
O 21.62511746 20.46831629 19.67064085
27
i = 0, time = 0.0, E = 0.0;
H 18.30753103 18.49947163 18.72700704
H 20.99869644 21.53972572 19.98781815
H 19.68034590 21.68124289 19.34311419
H 23.81714166 16.73188172 18.34592841
H 22.35591742 17.10781142 18.53048612
H 18.32762147 21.69668463 21.45950989
H 18.83088476 20.41296750 22.21868107
H 20.15818215 17.55247643 19.23950004
H 21.16332050 17.74778035 20.47284950
H 23.34050193 18.88639105 20.91663725
H 22.73336904 20.12503553 20.40334249
H 20.93326118 19.05879412 23.58556188
H 21.29492218 19.49566811 22.15408980
H 16.72818838 19.80536505 19.23440958
H 17.57297512 20.14478434 20.66481172
H 22.93685863 21.03490060 18.11092054
H 22.65958438 19.47055159 18.04363638
H 18.49809900 16.94647909 18.90032910
O 18.88888040 17.74439739 18.45565826
O 20.37260767 22.25410084 19.72671662
O 23.07954642 17.32532010 17.95531127
O 18.05414249 20.92326341 21.92469593
O 21.01846489 17.18724588 19.67561444
O 22.75867223 19.60859014 21.26253877
O 20.47898523 19.38246642 22.77342881
O 17.59582773 19.87622680 19.69522132
O 22.50057484 20.34007484 18.62735095
27
i = 0, time = 0.0, E = 0.0;
H 18.34975320 17.94151958 20.93374099
H 20.16567153 21.97153674 19.57440367
H 20.94357587 20.85520266 19.01381799
H 22.51040268 18.07912544 16.70500083
H 21.80550736 17.46342109 17.79324309
H 20.25010180 19.88163608 21.26720554
H 21.63048422 20.11043379 21.83398489
H 20.10015704 15.79048596 18.44822410
H 20.73471124 16.35829168 19.67464474
H 23.74359168 21.34488815 21.64370611
H 23.18602213 21.13032643 20.13646809
H 20.82817224 17.99668335 21.62773276
H 20.21524121 16.66284218 22.20292567
H 17.56791232 21.88433721 20.16334406
H 17.18291989 20.79043040 21.01865355
H 22.46649727 19.73508938 18.01953375
H 23.16013946 21.01103903 17.52795559
H 16.90021090 17.91782039 20.37009118
O 17.65452808 18.53680648 20.66330827
O 20.08547172 21.02273148 19.59298420
O 21.95041534 18.33897916 17.42998287
O 20.79312812 19.57650611 22.05484028
O 20.93086525 16.20783995 18.71276432
O 22.96898244 21.48270827 21.03136183
O 20.35896828 17.13732098 21.36148062
O 17.19116982 21.75555124 21.08337599
O 22.72573604 20.64705900 18.31663660
27
i = 0, time = 0.0, E = 0.0;
H 17.97680332 19.70886813 19.03333128
H 19.26292322 21.67932094 18.92419580
H 19.51649928 20.74272893 17.82397069
H 24.53903675 17.98160565 17.40226172
H 23.46029434 17.16428507 18.20368700
H 19.11569787 21.58214153 22.71865937
H 19.88998842 20.27337392 22.32046566
H 20.34389723 18.09074626 18.84003238
H 21.31702927 17.43360418 19.92585363
H 21.70193608 19.99427800 21.36441983
H 22.11948760 19.67007317 23.01515847
H 21.59324202 16.41700754 22.05467744
H 21.18760169 17.93673048 22.07218101
H 16.81484226 21.20271128 20.43790207
H 18.27672817 20.85772677 20.94673377
H 21.36482271 21.04259993 19.39815421
H 21.97911081 19.61668534 19.69166246
H 17.63459243 18.67055049 17.90531365
O 18.32697405 19.20986303 18.23779988
O 19.91008399 21.54395482 18.18303019
O 24.42586564 17.29267231 18.09931654
O 18.99669007 20.72340261 22.28204949
O 21.30766271 17.72115011 18.96786076
O 21.42666401 19.50499114 22.31092714
O 20.88122946 17.03181227 21.76959983
O 17.70918911 20.96349992 20.03973071
O 21.90465234 20.51632865 20.09659324
27
i = 0, time = 0.0, E = 0.0;
H 19.65705072 16.82931057 17.49286862
H 19.43023048 19.54335476 17.09456868
H 19.01115311 20.30908882 18.40022985
H 21.61779458 18.59580244 20.43844174
H 21.03934698 17.38135304 21.20773916
H 19.88391688 20.49500100 22.28733067
H 18.62384928 20.68165868 23.02111837
H 19.85901384 18.06437007 23.18945076
H 19.43304521 16.69602038 22.52762475
H 23.61514679 19.83378614 19.78880050
H 22.52754987 20.57979930 18.88462674
H 22.20066209 21.21469008 22.65853264
H 21.84454101 21.06367715 21.26867261
H 17.75328880 18.21447439 19.92456949
H 18.39558912 19.27768679 20.91289575
H 21.16443321 20.68509368 17.41845217
H 21.85739266 21.77783381 16.61248110
H 20.47239515 17.33657463 18.63543462
O 20.28608609 17.56553049 17.70539308
O 19.39022227 20.41588525 17.52479886
O 21.21775331 17.70766442 20.28888006
O 19.00361982 19.99107747 22.43701222
O 20.14748691 17.14700063 23.05160444
O 22.92162807 20.48510689 19.81255862
O 21.42280968 21.36149726 22.12062190
O 18.38832848 18.96778638 19.97439376
O 22.09268802 20.95971597 17.09147988
27
i = 0, time = 0.0, E = 0.0;
H 17.89417953 17.53652754 20.61957936
H 18.74930842 19.55441815 17.49052056
H 18.59156072 18.53929607 18.75633138
H 21.25715458 16.87548850 17.04399409
H 20.27010943 18.23791214 17.41946298
H 18.97442876 19.90374942 24.30583532
H 20.10734447 20.19381080 23.27434025
H 20.49288335 17.59147512 20.71867734
H 21.36629402 17.62341931 19.37284872
H 22.89629884 20.42328492 19.25990893
H 22.33692608 19.38925578 20.15907978
H 22.20717556 19.74611051 22.75146141
H 22.02953817 20.84823451 21.75244209
H 18.52409993 20.97360565 21.64614817
H 19.78070616 21.18770828 21.01028677
H 22.36396808 19.37169834 17.20276256
H 22.68366342 20.92832788 16.90407736
H 18.54334594 19.05981834 20.91764063
O 18.05400861 18.41056182 20.31608040
O 18.80486244 18.60770121 17.71582987
O 21.29290431 17.76712610 17.43814223
O 19.12186468 19.98613932 23.37344989
O 21.38611124 17.87278166 20.31629315
O 22.56324864 20.34991577 20.16792993
O 21.69083070 20.56502534 22.65164583
O 18.86691710 20.93479003 20.77407459
O 23.04686934 20.14473822 17.32628324
27
i = 0, time = 0.0, E = 0.0;
H 18.75006060 18.15102805 16.79275397
H 20.64490358 19.65922753 17.97793373
H 20.00419300 20.97838468 18.01062160
H 22.02551334 17.03800254 19.79638469
H 23.55788859 16.90928456 20.11263194
H 17.60895753 20.89777339 21.83926273
H 18.89499197 20.00455264 21.73620199
H 19.53992954 17.14971213 19.93063783
H 20.38660506 17.98570519 20.99668386
H 22.57668216 20.46760276 21.17030059
H 23.25387810 19.90809205 22.50252463
H 20.26056113 18.76218300 23.21554419
H 21.27276670 19.63973696 22.37262831
H 16.45365470 20.39876366 18.63611446
H 17.71091469 20.49241241 19.53468327
H 23.21566259 19.38720648 19.74320670
H 22.69429446 20.60556465 19.02423996
H 18.40966321 19.07475193 17.93179887
O 19.10803147 18.39349616 17.68611337
O 20.88112210 20.59327571 18.02100564
O 22.95521494 17.45218792 19.61629755
O 18.22449392 20.57018353 21.15349780
O 20.22869346 17.08691448 20.60109229
O 22.48623969 20.41449450 22.17115181
O 20.31110550 19.36011313 22.43194643
O 17.40534494 20.44344387 18.58927824
O 23.34127370 20.35454389 19.76406160
27
i = 0, time = 0.0, E = 0.0;
H 18.76043391 18.54644784 17.56820384
H 20.89829302 18.87169444 19.46506213
H 22.05567613 17.96649108 19.99280966
H 22.90317343 15.12984392 19.79666846
H 21.87008359 15.62082913 18.71802463
H 17.96139387 22.18615023 20.14216054
H 18.75804243 21.43948906 21.32098100
H 19.54411581 16.47086370 18.17402560
H 19.67746959 15.21781742 17.28015454
H 22.00325166 23.91251798 21.81352446
H 22.92419033 22.67265033 21.33335086
H 20.95565955 20.24556933 21.38468509
H 21.10455632 21.66821399 21.98754966
H 16.98551517 18.52575060 20.71614116
H 17.42033776 20.02565317 20.41378503
H 23.03481429 20.31140012 19.71062624
H 23.36837223 21.73216755 18.96182705
H 18.45410909 18.30261513 19.05596311
O 19.11835887 18.09809110 18.34979126
O 21.70378913 18.87623436 20.05732708
O 22.65522153 15.87730953 19.23370889
O 17.90955532 21.59133401 20.93123479
O 20.14520721 15.65203533 17.99557350
O 22.30039993 23.04152042 22.09192968
O 20.46131541 20.99474394 21.78050539
O 17.17564577 19.17684136 19.99163803
O 23.38266380 21.27635854 19.82253228
27
i = 0, time = 0.0, E = 0.0;
H 18.10270097 17.83712172 19.17753392
H 19.94705240 21.57395686 18.31470656
H 20.58701603 22.15973872 17.05067681
H 23.57359972 15.84546212 19.74368901
H 23.69726345 16.23139547 18.26556936
H 18.37220855 20.47406819 22.31369866
H 17.06548213 19.79004023 21.62665785
H 21.30737222 18.29060267 20.60206798
H 21.36855476 16.80066331 19.94647579
H 22.30967791 20.01776634 20.61752987
H 23.03941587 19.09731433 21.62362025
H 20.10026989 19.25937312 23.74789645
H 20.74258423 20.21565735 22.69654910
H 18.88321065 19.81367199 18.74862721
H 18.33567664 20.88469063 19.81195387
H 22.10677252 21.17068977 18.70689757
H 23.55119073 20.33024948 18.73583098
H 19.59744264 17.91735769 19.38046130
O 18.84777255 18.02839722 18.64700968
O 20.82055363 21.95102400 17.95612973
O 23.11486630 15.76871080 18.88843325
O 17.73821964 20.43682088 21.50415373
O 20.71579383 17.49946252 20.22178821
O 22.13293162 19.41634661 21.42180406
O 19.94966270 20.10641759 23.25854089
O 18.55323619 20.78808794 18.86863553
O 22.72660051 20.66079523 19.28141423
27
i = 0, time = 0.0, E = 0.0;
H 16.96868246 19.24240996 19.00156441
H 20.61155494 20.92141319 17.79802566
H 20.42580218 19.82178020 18.88794474
H 22.14010181 17.29578967 18.46960627
H 23.23668238 18.21783342 18.83655704
H 19.72771876 21.10182418 20.76101091
H 19.43173232 20.02809174 21.88846339
H 19.24015223 18.31338431 18.64268507
H 20.12472893 17.99996800 19.75316038
H 23.50412749 19.23012145 21.19490478
H 24.03777626 18.08050882 22.00179480
H 20.67538462 17.87745291 23.04595496
H 21.69904342 18.58671804 22.13308964
H 17.45103522 20.53733264 20.74266347
H 16.43755529 21.57508859 20.12755391
H 22.66377642 21.40684049 19.26834799
H 24.00571925 21.86719015 19.91565650
H 17.05211282 17.88350043 18.26695790
O 17.60839707 18.66138052 18.49746460
O 20.69843571 20.80310253 18.77519020
O 23.07888855 17.26210937 18.76488438
O 19.06923825 20.84365897 21.42402707
O 20.21154962 18.14542623 18.79181613
O 23.25200158 18.59552652 21.91299465
O 20.67544271 18.48269434 22.24235521
O 16.56778722 20.58276748 20.24908686
O 23.64289872 21.13590989 19.41368526
27
i = 0, time = 0.0, E = 0.0;
H 16.53844408 18.18891409 20.53353314
H 19.21863932 21.65673349 18.67212671
H 19.11546644 21.21253445 20.10362896
H 21.41345723 17.59898527 18.09983244
H 22.17824502 16.42952315 18.59527568
H 20.55544657 19.20637936 22.32070495
H 20.06086303 19.43181275 23.78176431
H 19.79193871 19.50634244 18.91821044
H 20.40319431 18.50886942 19.76961595
H 22.91007010 19.93762721 18.71420660
H 21.51385847 20.53935077 18.97994126
H 22.41349053 18.45282403 21.78502230
H 22.11273333 19.47314039 20.62052389
H 17.44600493 20.83385308 21.48833844
H 18.76384109 20.92337203 22.06017330
H 24.66964474 18.75268575 18.34486126
H 23.32182162 18.27466760 17.64933294
H 17.90691740 18.48812542 21.28637081
O 16.97245975 18.67293857 21.30178821
O 19.68851581 21.07539226 19.29201699
O 22.17492267 17.02576232 17.83633337
O 19.79129071 19.58755893 22.82500923
O 19.91140390 18.48453379 18.88112138
O 22.40015132 20.48619665 19.40397378
O 21.69587799 18.74248700 21.19572183
O 18.19564862 21.49898979 21.48152498
O 23.91764058 19.10073166 17.79179681
27
i = 0, time = 0.0, E = 0.0;
H 18.05041390 17.24217201 18.73299183
H 21.11347915 18.85934382 17.45617190
H 19.68994882 19.17159715 17.39664798
H 22.74569601 16.85283475 17.79333877
H 21.83392523 17.18392367 18.89365124
H 18.61147377 20.62679252 23.04052410
H 20.12614290 21.04866728 22.75722782
H 20.26902342 17.16856697 19.79660294
H 21.29259146 17.02016980 20.95178381
H 21.45065557 21.63638222 20.29525560
H 21.98446098 22.11295054 21.71555991
H 20.98812636 18.93709962 22.74022070
H 22.09469745 19.48588329 21.74464903
H 19.50141008 20.63564655 19.80552332
H 19.94887659 19.71498222 20.83804416
H 20.62887798 20.91441643 18.06535300
H 20.43470632 22.59104405 18.22065669
H 18.55169997 18.60723260 19.36251634
O 18.83484585 17.83494268 18.74313141
O 20.53923486 19.62362930 17.16238745
O 22.36566324 17.67216013 18.22938421
O 19.40104868 21.10798882 23.44320243
O 20.76925060 16.52664768 20.27493344
O 21.57653626 21.40925687 21.25521212
O 21.58946150 18.66483900 22.02951586
O 19.13111127 19.93975764 20.34149971
O 20.60488896 21.74453965 18.66338319
27
i = 0, time = 0.0, E = 0.0;
H 17.38379020 19.36128444 19.83892194
H 19.49110836 19.59960046 17.68847486
H 19.69586404 20.66524569 18.75955266
H 22.04996968 17.26133646 18.22547305
H 23.48106630 17.04557288 17.33876523
H 19.67078208 20.76815012 22.47683626
H 19.61001673 22.33601206 22.59326103
H 21.67890975 17.43885573 20.26437323
H 20.30035799 17.38952196 19.84359958
H 23.12120732 19.54344344 20.39722562
H 23.71340613 18.67182228 21.66802171
H 20.13909517 18.63173680 22.98023992
H 21.23805486 19.15419693 22.02624468
H 17.35855410 22.21927454 19.84515398
H 17.80736588 21.39399838 21.01018624
H 22.23926577 20.57265291 18.84934662
H 23.09547693 19.43450975 18.16459332
H 18.49323343 18.70109853 20.49280276
O 17.84070842 18.47586786 19.80691579
O 20.16935870 20.30202792 17.96289734
O 22.84798828 17.74194456 17.68306806
O 19.05467566 21.51947591 22.60307996
O 21.13214753 16.96467658 19.59908331
O 22.92968564 18.95961088 21.23010108
O 20.26910205 19.07184837 22.12126908
O 17.32072772 21.28977043 20.16030470
O 23.16880920 20.17468546 18.79596896
27
i = 0, time = 0.0, E = 0.0;
H 16.88024443 16.87334102 19.39840933
H 21.19966586 19.32481777 18.68714786
H 19.85261245 18.58554748 18.45969033
H 23.83006102 18.60428753 18.11298808
H 23.49107451 18.87688918 19.57488954
H 18.64902896 22.12672180 22.02514117
H 17.79644192 21.64034900 23.09930497
H 18.99033078 16.58980996 18.10449781
H 19.91914498 16.21190219 16.82514792
H 22.68525020 20.64470645 23.13574341
H 22.38691546 21.40552699 21.88490376
H 22.85789188 16.92811775 21.17359322
H 22.42193918 18.29830531 21.86637704
H 17.89602135 20.18752770 20.47302066
H 19.21561069 19.63053088 20.14410181
H 22.78794033 21.00031177 19.20344321
H 21.87546910 22.15066462 18.73097992
H 17.73781358 18.11783858 19.43022168
O 17.40465032 17.44136413 18.81613318
O 20.22390674 19.45023263 18.75874862
O 23.16308272 19.07480172 18.67837507
O 17.73284643 22.15008488 22.29438026
O 19.91451737 16.61159371 17.75448316
O 22.03763853 20.67744746 22.43632682
O 23.17001846 17.89652710 21.28721585
O 18.42174379 19.40942456 20.74592061
O 22.67072549 21.97688389 19.32552179
27
i = 0, time = 0.0, E = 0.0;
H 17.08915146 19.10374524 18.94938502
H 21.31960526 17.52566887 16.85151387
H 20.40314935 17.51254412 18.08253890
H 22.43367527 16.14732561 21.04867538
H 21.49806381 16.52130862 19.87871843
H 20.59022328 21.75835375 21.80006127
H 20.09061593 22.86768324 22.74804933
H 19.49692652 16.11711130 19.06831579
H 19.00821191 17.61393060 19.60141275
H 22.72346987 20.02068363 19.85010556
H 23.14224826 18.61105333 20.58946536
H 20.90962952 19.92651158 23.02271303
H 21.66450172 19.79083824 21.63353308
H 17.41857539 21.67793474 20.96927025
H 18.90314583 21.83257617 20.74328775
H 21.50908012 20.86671105 18.43532161
H 21.75461959 19.51283000 17.75341004
H 17.90608101 19.83232836 20.00201853
O 17.82091593 18.94128398 19.53931658
O 20.75944368 18.12162620 17.40987289
O 22.43416792 16.68109476 20.22092992
O 20.20232945 22.66103503 21.80241682
O 19.64278543 16.86596862 19.70574482
O 22.97082292 19.59286821 20.76452329
O 20.76740133 20.09303260 22.04023404
O 18.09130467 21.50541078 20.30827577
O 22.21455521 20.22339743 18.26180227
27
i = 0, time = 0.0, E = 0.0;
H 17.18037351 16.81644826 18.61286654
H 20.40059683 20.53587160 19.04692549
H 19.91887348 21.65626302 19.93184254
H 22.24104145 17.77538438 18.37503841
H 23.49365987 17.97289909 17.41198266
H 18.95530786 21.64302468 22.72050049
H 19.17921175 20.30690500 22.00382055
H 19.72652697 17.90676038 18.23068814
H 20.42233262 17.94951619 19.54600378
H 23.06330758 19.78598111 21.12186557
H 23.54936691 18.96179429 22.29718922
H 20.38839066 18.41577854 23.20049037
H 21.12585861 18.90594229 21.98589692
H 18.23312153 20.36060414 19.73351658
H 17.38639855 20.14253882 20.88332554
H 22.73733420 21.15264876 19.38582507
H 23.11199401 19.68267600 19.02002070
H 17.33729919 18.25228977 18.86930426
O 17.71467227 17.55416088 18.24251164
O 20.49776588 21.49117471 19.19730399
O 23.26686430 17.96842505 18.37793720
O 18.96054901 21.23202605 21.81645300
O 20.59861228 18.05649612 18.60025930
O 22.76256360 19.42627835 21.97282205
O 20.22698947 18.55332618 22.28443677
O 17.43042810 19.87634852 19.92734600
O 23.40810796 20.46547404 19.54903478
27
i = 0, time = 0.0, E = 0.0;
H 17.71972028 15.00639126 19.94647965
H 20.15238403 21.15580295 18.43221738
H 18.66266841 21.23896151 18.73193439
H 22.54906077 19.78109235 16.50287693
H 21.37620125 19.18643190 17.45368724
H 19.72030711 20.83951469 21.00064952
H 19.94153738 19.76652093 21.99475580
H 19.58492750 18.48551296 18.54251757
H 19.76896127 17.74674879 17.22188841
H 23.18527447 21.05031683 21.43791691
H 22.49991848 21.79637311 22.58782081
H 21.50733158 18.02953872 23.46945647
H 21.87543288 19.40598303 22.79588814
H 17.35739033 18.20452800 20.08033730
H 18.55770847 18.73018986 20.95815262
H 22.89758466 20.50103747 18.61936403
H 24.21713181 20.97910213 19.54871415
H 17.77697345 16.54549890 19.66622809
O 17.40811580 15.70289263 19.35995058
O 19.50411292 21.48639421 19.08814941
O 22.00558365 19.99803426 17.31425431
O 19.43430295 20.63540343 21.91646111
O 20.22738937 18.19083787 17.94523553
O 23.10186297 21.03217111 22.41984988
O 21.46947295 18.51582815 22.61055264
O 18.35485850 18.44275742 20.00658074
O 23.30418053 20.60513808 19.52041558
27
i = 0, time = 0.0, E = 0.0;
H 17.58000936 19.46283288 19.20685633
H 21.14226405 20.67623067 18.25334714
H 19.75499827 20.10932614 18.17400607
H 22.55271612 15.83415706 18.09956140
H 21.92794507 17.18811724 18.39009288
H 18.28687145 22.50013879 22.62660593
H 19.35611445 21.36888080 22.30198520
H 19.77059732 17.71591641 19.23620870
H 21.08513061 17.91419822 20.02152261
H 23.15751441 18.60189152 21.25230861
H 22.76437798 17.83555480 22.51333533
H 21.71150679 21.34414656 22.26858871
H 20.93911188 20.08057550 21.82531261
H 16.25004804 21.14404996 20.18483733
H 17.81170897 21.32154627 20.64419533
H 24.96365484 19.09412612 19.33650438
H 23.93245883 17.96349297 18.90853871
H 17.04439588 18.04969428 18.86908752
O 17.89791426 18.59885517 18.91448542
O 20.23582596 20.93537795 18.10429847
O 22.78541654 16.77824545 18.14792299
O 18.33569087 21.51125639 22.39112682
O 20.73767354 17.87840334 19.07615106
O 22.40895439 18.29606514 21.78986968
O 20.90904441 21.02270719 21.93268546
O 17.20174487 21.04631880 19.94304024
O 24.25471482 18.55764292 19.68517073
27
i = 0, time = 0.0, E = 0.0;
H 17.16339319 18.46188794 20.40384994
H 20.32592281 20.63270370 17.22458929
H 20.52180942 19.53939881 18.42397267
H 22.02628787 17.30254615 18.07812333
H 23.43851821 16.83247397 18.45737786
H 17.80194276 19.82648551 21.25567893
H 16.55603026 20.51955859 21.35400176
H 19.33696433 18.10573717 19.42645195
H 20.74090735 18.13365495 20.01808390
H 22.64096785 21.25858107 20.62668538
H 21.97417590 21.82375256 21.98627557
H 21.92006867 19.45675507 21.77607625
H 21.77614920 18.03484217 22.23614613
H 19.68766338 20.68575922 19.85390469
H 20.14543047 20.05119830 21.12286322
H 22.24962988 20.84037918 18.60750434
H 23.23473686 19.75309986 18.87353551
H 17.33391965 17.03983236 19.57606405
O 17.78755858 17.71436044 20.21297704
O 20.64740640 20.57760794 18.15215502
O 22.98857283 17.65309750 18.20572756
O 16.77112900 19.57100413 21.37251516
O 20.24996622 18.04430308 19.19903381
O 22.52911898 21.12231195 21.64134727
O 21.38654626 18.65059707 21.59762970
O 19.38022598 20.53271036 20.75419587
O 23.09934503 20.75297194 19.02631828
27
i = 0, time = 0.0, E = 0.0;
H 16.32904497 18.92418824 19.35724890
H 19.09803618 20.28839716 18.37027975
H 20.11555565 19.17777293 18.47343061
H 22.06380704 17.22899344 17.92014589
H 23.48745928 16.89227210 17.31037838
H 20.48668850 21.05292739 23.26939175
H 20.55911948 20.29074469 22.01250712
H 18.79085525 17.91340656 19.86601497
H 20.26932489 17.78966541 20.52991592
H 23.02573587 20.04488391 19.82262213
H 23.62610472 18.62503802 19.55241113
H 21.66068724 18.44775692 22.88223884
H 22.20571505 18.73682311 21.30530669
H 18.26053860 20.86383895 22.41814663
H 16.87201536 21.65419535 22.21577721
H 22.86340476 19.97381594 17.68348035
H 21.65636902 20.96708779 17.70521732
H 17.08002369 19.65656809 20.49536258
O 17.18569057 18.96980915 19.82578788
O 19.85993164 19.96359890 17.86961212
O 23.00693111 17.43122867 17.98669078
O 20.09103442 21.08627311 22.39500884
O 19.78324228 17.59347971 19.67492648
O 23.53885253 19.28661667 20.26212525
O 21.44052976 18.58596479 21.91004664
O 17.26278727 20.75816487 22.27821938
O 22.69758544 20.92935468 17.84048731
27
i = 0, time = 0.0, E = 0.0;
H 17.53269841 17.48149540 20.28594974
H 20.40307318 19.46208012 16.71737413
H 20.55961903 18.87491590 18.29901134
H 23.48263904 18.08801135 19.77313996
H 23.26405445 16.60015024 20.08550121
H 19.59392323 20.73856529 22.14796619
H 18.70630583 20.17685022 23.15740845
H 19.43592498 17.61110264 19.60322103
H 20.97262457 17.60911400 20.01880888
H 23.62300762 20.35239385 19.08352730
H 24.04813527 19.47460119 17.92708533
H 21.06882824 20.35968431 20.46896399
H 21.64440880 19.48957563 21.57803549
H 15.91137534 20.77866338 21.03443519
H 17.39502771 20.64512419 21.66208399
H 21.37782900 20.91637818 18.36522415
H 21.94549076 22.18078926 19.18163319
H 17.54407402 18.90649135 20.33197069
O 18.09540713 18.21100015 19.95971327
O 20.67881984 19.68325298 17.61338746
O 23.22109365 17.49358346 20.47596916
O 18.72066044 20.93765427 22.54453914
O 20.41598520 17.36907174 19.26118638
O 24.22264920 19.58496196 18.87981563
O 20.75744090 19.80062552 21.24568647
O 16.69110671 20.28614570 21.01883428
O 22.05973281 21.16148049 19.13629648
27
i = 0, time = 0.0, E = 0.0;
H 20.24621227 19.13366822 18.48180599
H 20.50933110 20.60076091 20.27108452
H 20.94968915 22.01388375 19.82895442
H 22.57776338 17.59813674 17.15560172
H 21.87423511 17.07580851 18.54994028
H 17.82141008 20.93249671 22.44371170
H 18.53211420 19.85333557 21.58492454
H 19.79820723 17.25874842 19.31875968
H 19.99589903 15.78745322 19.81847126
H 22.93957137 20.08764012 21.61726735
H 23.07197795 19.83153991 23.14086098
H 20.27730198 18.10725024 20.85761278
H 20.95064293 19.00357462 21.90161690
H 18.75457059 21.48182925 18.87293884
H 17.36579783 21.84861083 19.35686606
H 23.36891436 18.76954654 19.31524347
H 24.53503667 19.80625338 19.56269125
H 18.79289261 19.29543721 18.80638229
O 19.41228425 18.62758232 18.52664232
O 20.55093532 21.21327060 19.48113540
O 22.52724931 17.75394203 18.17044651
O 17.66437994 20.39260440 21.61615691
O 20.39773939 16.68016893 19.86549445
O 22.41951825 20.05371030 22.49993443
O 20.11519007 18.89228115 21.38580693
O 17.81453482 21.54079271 18.54916318
O 23.71834008 19.45280960 19.96734973
27
i = 0, time = 0.0, E = 0.0;
H 16.59762488 18.25650127 18.90656797
H 20.08080275 22.36255579 19.84386330
H 20.34269172 20.94193820 19.25256335
H 20.77324526 16.69946730 16.92270625
H 21.43273028 16.68424795 18.21112779
H 20.70272821 20.81572887 21.70940283
H 20.81856385 19.35903544 21.89788655
H 18.92719417 19.08731208 18.39663504
H 20.31528439 18.95480883 18.88508521
H 23.46176898 19.67372257 20.89053716
H 24.43557509 18.52973188 21.28449446
H 20.85454156 17.14658277 20.48438949
H 22.07406059 18.03273986 20.49343029
H 18.66227648 19.98917805 21.69856571
H 17.37467401 20.73841665 21.72537254
H 23.81383699 22.00001658 20.38546184
H 22.29436868 21.57290012 20.17188052
H 17.29530338 19.40827045 19.54950049
O 17.15543236 18.97196076 18.68808551
O 20.62876533 21.61516497 19.90847453
O 21.02342888 16.07943897 17.61426210
O 20.43116299 20.12457062 22.42445518
O 19.83681953 19.46817007 18.18642051
O 23.52902829 18.78821061 21.29001703
O 21.04653440 18.06348945 20.42124387
O 17.88913686 20.17733074 21.11649206
O 23.21244177 21.20748654 20.42372134
27
i = 0, time = 0.0, E = 0.0;
H 18.63003021 19.11231733 17.90544139
H 23.02588201 19.02155237 17.69144859
H 21.86686427 19.12371182 16.69715744
H 22.15948490 19.15365541 20.44485703
H 23.21567221 18.55118364 21.43866077
H 18.96714736 18.98268174 22.39959005
H 19.87136896 20.32035907 22.39137575
H 20.29757303 18.62103670 19.97502918
H 21.02177671 19.29876492 18.85798205
H 20.66450448 21.39607505 21.23271200
H 22.00774976 20.87781590 21.84295216
H 18.30334387 17.81145743 20.26153692
H 18.82193791 16.37385853 19.99072266
H 16.33202710 20.03751656 20.18000140
H 17.69375556 20.46196307 20.94960183
H 25.33806025 20.10296283 18.39643833
H 24.32203942 19.57818269 19.38811294
H 17.53166903 19.45732136 18.99074405
O 17.84766039 18.74233141 18.37537037
O 22.06833731 18.90110823 17.62391064
O 23.13911708 19.17339669 20.71719088
O 18.94888118 19.93672225 22.22059984
O 20.69670071 19.48655941 19.80250462
O 21.22920104 21.47969882 22.09604331
O 18.84875039 17.05211739 20.70581668
O 17.18430999 20.52918101 20.09177638
O 24.80153524 19.31887174 18.54549767
27
i = 0, time = 0.0, E = 0.0;
H 18.09192395 16.79362768 20.02670539
H 20.13676524 22.23139441 18.29137403
H 19.88066513 20.99260955 19.22485093
H 22.19752208 19.35367869 17.48078735
H 21.69712432 18.06748600 16.66576575
H 20.53317968 18.30794384 22.21967457
H 19.77613210 18.12186415 23.62273937
H 19.30000523 18.40164657 19.78113611
H 20.29585283 18.68844364 18.52292227
H 23.00217086 21.37470709 21.27298775
H 23.05180292 19.85770034 20.90414583
H 22.70798053 17.70584193 20.68126490
H 21.38885427 18.65620671 20.44496533
H 17.96009467 20.32498464 21.30087249
H 18.04091253 19.00084299 22.25245947
H 22.13761191 21.10188144 18.36428603
H 23.24122424 20.43202530 19.23495032
H 17.42317500 18.03914236 20.49444280
O 17.83644284 17.65002668 19.69290015
O 19.77777783 21.97303766 19.13832219
O 21.42213940 18.90815414 17.09086367
O 19.67255113 18.07072035 22.64668069
O 19.97364327 18.99481922 19.42147038
O 23.64135252 20.67161424 21.05418543
O 22.10078898 18.38365975 21.08009955
O 17.42686438 19.53166764 21.63809685
O 22.86302690 20.48860506 18.30571074
27
i = 0, time = 0.0, E = 0.0;
H 17.46213136 18.24577319 21.05000547
H 21.22571611 20.84767841 18.28438433
H 20.35881603 20.77035438 16.79725233
H 23.15206744 17.10365962 18.31341597
H 21.73743451 17.45332424 18.94140847
H 18.28754170 20.66539695 21.87870557
H 19.34508172 21.59802229 21.95043976
H 19.51882661 18.40877852 19.51297940
H 20.17704340 19.20312421 18.44288235
H 23.87435095 16.73613602 22.57293874
H 23.51719080 17.37691517 21.06082570
H 21.88980129 18.47174586 21.99045136
H 20.30403856 18.84085749 21.55018319
H 18.76265131 20.79719168 18.53489551
H 18.06373413 21.21106815 19.93988890
H 22.63070344 19.69818246 18.89640571
H 22.05004540 20.22404775 20.22386056
H 17.89241812 19.48866460 20.16932330
O 18.24997041 18.80027862 20.85694382
O 20.32515604 20.66312142 17.75117807
O 22.71613005 17.63202972 19.02120170
O 18.41217379 21.57547506 21.61630953
O 20.02383578 18.22107335 18.69740484
O 23.37031231 17.49207553 22.06857097
O 21.27705499 19.14531811 21.62851126
O 17.96098412 20.60582609 19.14813889
O 22.41761667 20.55670778 19.32266654
27
i = 0, time = 0.0, E = 0.0;
H 18.75642600 17.95267176 17.63033183
H 21.77236656 19.14505967 18.26163577
H 20.39322997 19.40083193 17.87808019
H 23.28059825 17.20191960 18.72947518
H 21.96348549 17.20985414 19.62303201
H 19.48553584 19.96278727 22.15682651
H 18.69899448 21.11636032 22.90693975
H 20.08176519 17.16602350 19.87621404
H 20.80173775 17.38524581 21.33491092