60
i = 0, time = 0.0, E = 0.0;
H 18.13217654 18.45764444 17.64259574
H 21.08005118 20.17995969 18.17407420
H 20.58224996 21.60864672 18.21470828
H 21.90568386 18.02624486 21.15012720
H 20.32704559 17.69446523 21.08148297
H 16.46004053 21.40898030 23.18224254
H 15.09003805 20.67424953 22.83166271
H 18.68714296 17.24918238 19.72569965
H 18.55667431 16.86220730 21.31165013
H 16.46980809 22.17389194 19.89753062
H 17.41248170 23.32700772 20.37721413
H 20.70891374 19.85974811 24.47410609
H 19.59403625 20.55618281 25.27977449
H 21.96706285 19.19403549 16.64788748
H 20.82147094 19.43218400 15.75833207
H 22.30546059 16.31446546 19.64602970
H 23.72930828 16.67002956 20.26880419
H 21.34681292 18.03099798 23.20087277
H 20.70929880 17.57123354 24.54032911
H 16.23676263 19.57508440 19.46543863
H 17.32186199 20.43253830 19.60232495
H 22.57049262 18.38230267 18.65014222
H 22.90891766 19.93398777 18.96514712
H 21.78497448 21.63057934 20.40821241
H 22.86122229 22.67872827 19.99345588
H 20.38889126 15.41854013 19.55534576
H 21.00019553 15.59151571 18.05202346
H 19.00687929 22.09730872 23.79541186
H 18.37031362 23.04108617 22.71109750
H 19.58850807 22.60268159 20.99898648
H 20.20955877 24.02419301 20.44932171
H 21.09757225 15.54981769 15.71362566
H 21.11775952 17.12023180 16.09015693
H 17.26701968 19.14271516 22.98808476
H 18.76189179 19.11593251 22.50781640
H 20.32578854 20.70123933 19.90531559
H 20.64836391 19.78381310 21.10543964
H 18.50048735 20.85177809 17.28967537
H 19.23082594 17.41994339 17.76716675
H 17.51678516 20.46593493 16.15676120
O 18.49106884 17.77572466 18.28686019
O 20.28220638 20.74628027 17.93078591
O 21.02136069 18.31204085 21.59492805
O 15.99435497 20.58135400 23.17624455
O 19.14390864 16.90719438 20.55764256
O 16.76840117 23.09380169 19.70148776
O 20.23197446 20.67909429 24.51190048
O 21.59902077 18.90424156 15.74122442
O 22.90251843 17.06553617 19.90889712
O 21.42156534 18.10507476 24.20975753
O 16.63548754 20.08517929 20.19728302
O 22.45375213 19.34088845 18.32590939
O 22.38667200 21.84844243 19.69022748
O 21.17610959 15.25240817 19.00397100
O 18.15843440 22.46377000 23.46486302
O 19.51839301 23.59768116 21.01907456
O 20.80635579 16.21152682 16.33306129
O 18.00022320 18.57621275 22.60586579
O 20.33513528 20.75413647 20.86595031
O 17.67565162 20.32381356 17.10914428
60
i = 0, time = 0.0, E = 0.0;
H 15.88433824 16.24429466 18.94637298
H 23.06697370 18.73819533 16.80344399
H 23.84570806 19.94505802 16.07256363
H 20.72658900 16.05369122 22.75487060
H 19.52394035 16.95318873 22.29772431
H 18.99198877 22.93046556 22.55902953
H 17.90346942 23.19864988 23.66781037
H 17.68463301 16.93842434 20.92496968
H 17.90972868 18.16461928 21.96435354
H 17.51905385 23.03510336 19.28755230
H 16.16966674 22.61824726 19.95852280
H 20.38678365 18.19503177 24.10118303
H 20.76917239 19.66114155 24.09887384
H 20.61076214 20.98141247 16.13005329
H 21.48052527 19.77030498 15.76926972
H 23.06128141 15.34521128 17.67527407
H 21.71807252 15.57564361 18.46936364
H 22.38068530 20.17920250 22.63449785
H 22.95241142 21.35229809 23.60522848
H 15.27651133 21.70211217 21.73928354
H 16.32221848 22.62237905 22.17865982
H 22.81188742 17.27139342 18.66913641
H 21.66314292 18.42470808 18.21568739
H 19.22828493 20.07332415 20.81058450
H 20.74444045 19.83276145 20.51754233
H 19.08519183 15.50783520 19.13836841
H 19.63474462 16.71898118 18.29283409
H 21.16489942 22.75706186 22.31495083
H 20.59482741 23.09829702 20.91098621
H 20.33970774 21.66063712 19.58872298
H 21.71468625 22.43175092 19.27324354
H 19.80832895 19.23184989 18.74513845
H 19.72857014 19.14794781 17.18440213
H 19.13185164 19.54188482 23.04080066
H 18.17082179 20.65523042 22.60384337
H 22.38839924 18.74753574 20.08102653
H 21.64201753 18.05643876 21.22510807
H 17.58093597 19.68332835 18.47758410
H 16.74040272 17.52855536 18.75289678
H 16.81261017 20.58877997 19.22625892
O 16.82492299 16.53008964 18.98875286
O 23.08095535 19.27688479 15.95387488
O 20.51662220 16.92097800 22.38000208
O 18.03502742 22.67236468 22.83071321
O 17.97883156 17.13025615 21.86307194
O 16.73781028 22.53146502 19.13652938
O 20.01403596 19.06262647 24.30617358
O 20.55255467 20.06239290 15.78874765
O 22.71158348 15.76375662 18.51093558
O 22.19753856 20.78445944 23.43712008
O 15.48105974 22.64279852 21.73880261
O 22.63470261 18.30103163 18.55811818
O 19.90680166 20.25177322 20.10543437
O 19.92930254 15.95951826 18.89034935
O 20.44763814 23.20762963 21.87979939
O 20.74293135 22.53684060 19.32031682
O 19.76464964 18.60722281 17.98531097
O 18.55324645 19.78848343 22.21635664
O 21.96166484 18.95326630 21.00623526
O 16.89483809 19.62092735 19.14110917
60
i = 0, time = 0.0, E = 0.0;
H 18.06324296 19.21383311 17.75770380
H 20.29318999 20.75629674 18.78393405
H 21.09156400 20.47749452 17.45109478
H 21.36643046 15.10891319 22.57889214
H 20.19866935 15.90498041 22.98516781
H 19.58750904 22.93556398 23.08257135
H 19.01564786 24.35816810 23.09285245
H 17.55661926 17.96571995 20.12580986
H 17.81858372 18.36964722 21.52413880
H 16.05817026 22.95822534 16.06886161
H 17.46556948 22.57862641 16.31268324
H 20.71238041 18.69265747 25.20820236
H 20.37908422 20.31979400 25.23177776
H 21.46793815 19.43648280 14.29537938
H 19.98441538 19.10784838 14.22531736
H 19.75488297 16.96314608 20.95916623
H 20.19136197 16.15799909 19.71565857
H 21.88152777 16.81504064 24.37654779
H 22.83773911 17.74991198 25.15193331
H 16.10467308 21.77010270 23.83720586
H 17.25873755 22.75402528 23.12265454
H 21.89555676 17.60048344 19.84535296
H 22.67848319 18.59811797 18.84298909
H 19.33394738 20.20736067 21.08118401
H 20.74620396 19.63713065 20.86842996
H 19.28589856 15.99207593 17.18203907
H 18.77367587 17.33560006 17.93182961
H 21.51689480 21.18399980 22.93005631
H 19.98416846 21.03952402 23.20685125
H 19.81348859 22.39437846 16.82523211
H 19.33590627 23.79418104 17.05988027
H 20.91273380 17.85660156 17.48922578
H 21.33803737 18.35839264 16.11890598
H 18.83854602 19.37911829 23.39575343
H 17.74439610 20.60958145 23.04814285
H 22.00855335 18.73567523 23.01934793
H 22.54036409 18.96850246 21.57038048
H 17.45014568 20.58287975 16.28443966
H 18.95794495 19.04726936 19.09075974
H 18.91558755 20.30383936 16.67018664
O 18.18539938 18.71566333 18.63663833
O 20.52586780 21.14035507 17.88351842
O 21.05424157 15.72308004 23.32834754
O 18.77321771 23.44750666 23.12576188
O 17.68086046 17.56769795 21.00610375
O 16.61891903 22.14381079 16.12597667
O 19.99628286 19.46640206 25.14066948
O 20.86122736 18.64936333 14.36713218
O 20.56315362 16.56060021 20.53865611
O 22.03260470 17.75856836 24.61865119
O 16.66683295 21.97308125 23.04381272
O 22.57671013 18.40044684 19.83748015
O 19.94414187 19.92593450 20.34878783
O 19.44184457 16.52311601 17.94938011
O 20.76530197 21.71271593 23.32026338
O 19.29915740 23.10017301 16.40923674
O 21.48865807 18.53076678 17.09555918
O 18.44999211 19.96996873 22.69461140
O 22.05602109 19.41497995 22.27760514
O 18.11303398 19.82658987 16.31221023
60
i = 0, time = 0.0, E = 0.0;
H 17.91308232 17.82602080 18.78924655
H 20.47942364 20.83904159 18.37503015
H 21.59279985 20.84411365 17.22291855
H 18.74547027 14.73637082 20.51519289
H 18.69211379 16.14729622 20.83973475
H 17.50066714 22.28532250 24.17024134
H 16.04302465 22.05237320 24.67770762
H 19.49033053 18.17010983 21.42251457
H 18.72776531 18.35589522 22.81414720
H 17.10802463 21.43261415 20.52854914
H 17.76003498 22.82899175 20.26893593
H 20.88507682 20.03310809 23.49722323
H 20.30706834 21.03607316 22.43159081
H 20.61899760 19.55328957 15.96982811
H 21.51378312 19.03983074 14.87743102
H 22.41529233 17.02503361 19.23985693
H 23.79767741 17.62426225 19.87234521
H 21.11223625 17.62878795 23.40603284
H 21.10173310 18.32716188 24.74210190
H 17.46728088 19.77473097 21.59185189
H 16.71098036 20.79531411 22.61904779
H 23.78861872 18.88203372 17.27295194
H 22.54643960 17.86918047 17.28516648
H 19.11375215 21.25455330 19.91286100
H 20.32063189 20.24195798 20.23931694
H 20.96462975 15.28662988 18.74887476
H 20.84711439 16.32262979 17.62345364
H 19.96902677 22.63814041 24.09246351
H 19.33062295 23.91763602 23.42176973
H 21.38861474 24.37344054 20.70955279
H 20.65515973 23.03323906 20.25141926
H 19.11691909 17.36771914 16.95662779
H 20.09495921 17.42047429 15.74538677
H 19.05453563 19.92143476 24.39685900
H 17.89928718 19.02305504 24.67852030
H 21.83196475 18.49218646 20.37707009
H 20.52420095 18.11751558 19.76348785
H 18.68454753 20.89200725 17.04620546
H 17.46533480 19.02323491 17.83373148
H 17.75620337 21.35434952 18.28141039
O 17.73494676 18.04452052 17.89492325
O 20.60223533 20.62307019 17.41139210
O 19.13565092 15.55614591 20.17426711
O 16.85386225 21.56048258 24.35698695
O 18.56056545 18.18952711 21.78418793
O 17.60205072 21.97761106 19.82447057
O 20.64287848 21.01655693 23.34587044
O 20.56794763 19.11615887 15.11036815
O 22.94519371 17.90648096 19.45516483
O 21.73024879 18.15735834 24.00475299
O 16.81671596 20.49220370 21.65793231
O 23.14465771 18.43356270 16.65933033
O 20.11275742 21.14832154 19.90187175
O 21.48371782 16.00608164 18.38950218
O 19.13702810 23.22367288 24.11798669
O 20.54848775 24.01368410 20.47427398
O 19.86238169 16.80523565 16.52266903
O 18.88086060 18.98041680 24.59179537
O 20.83925771 18.65123608 20.54240550
O 17.88087478 20.66311194 17.57814717
60
i = 0, time = 0.0, E = 0.0;
H 16.18137497 17.47814718 18.01294772
H 19.91201685 19.25592540 18.79205097
H 20.99765100 20.00322976 17.92170676
H 20.91816267 15.27609819 21.07860918
H 19.74289095 14.59541423 20.20825397
H 17.96655372 24.31204079 26.19264822
H 18.52634385 23.13370919 25.51262303
H 17.72786177 18.43236454 19.65629047
H 18.05447121 18.68817025 21.22618608
H 17.71012572 20.63016986 19.67724797
H 18.50499982 21.70540854 19.11640047
H 20.02460898 17.53269500 24.09152311
H 19.79909733 18.78795473 24.69783997
H 18.74234441 21.05137058 15.57043067
H 19.88610538 20.79113008 16.73006464
H 21.09020386 16.02297697 18.81752924
H 20.94194128 16.71882566 17.44390389
H 22.54798868 16.76580972 22.49251335
H 21.14061872 17.14296680 21.98094600
H 17.98083095 21.91428428 22.46322318
H 19.01912684 23.09076395 22.44973272
H 22.45954966 18.64482870 17.41095351
H 22.51173280 19.51949274 16.16242211
H 19.80545632 21.53408700 21.28600373
H 20.71637745 21.41979102 19.99086480
H 19.36736213 18.79361954 16.34288572
H 18.61049347 17.67952292 17.14510375
H 19.63096788 21.46843656 24.29937052
H 21.22197629 21.03352250 24.36401136
H 22.74226241 20.31875149 23.05011762
H 21.94502964 21.47746660 22.46122372
H 21.44800763 19.63320258 13.47290847
H 21.01596595 19.02622430 14.76058121
H 18.09850333 18.43103455 23.53131376
H 16.74717908 19.14426263 23.04928848
H 21.73883567 18.22003830 19.90729397
H 21.21335112 19.58768923 20.53245834
H 15.98106644 21.19126866 16.66804980
H 16.67039524 18.99616052 17.76587859
H 16.85867826 21.07003477 17.82715966
O 16.94488628 18.07991233 18.14974327
O 20.16231658 20.17935788 18.47350380
O 20.29710841 15.41603588 20.32126829
O 17.98637395 23.30176784 26.31507622
O 18.25674994 19.02089828 20.28344677
O 17.65780995 21.63056191 19.53632469
O 19.32483556 17.96636773 24.62327351
O 19.70570363 20.70877559 15.71763753
O 21.50502309 16.77244456 18.26153526
O 21.61805213 16.49490589 22.54409915
O 18.61590603 22.37252974 23.04222895
O 22.42090996 19.60053084 17.09887622
O 20.64226823 21.85748501 20.89879568
O 19.40091720 17.82380214 16.55723858
O 20.32058639 20.98081937 24.80013933
O 22.74179661 21.29935104 23.00808355
O 21.78697808 18.94709206 14.12191700
O 17.65047482 18.88601571 22.79557103
O 21.69914194 18.71924817 20.77393124
O 16.66812678 20.58744349 17.00157149
60
i = 0, time = 0.0, E = 0.0;
H 18.21766592 18.35368709 19.81234266
H 20.57945658 19.98358431 17.97618816
H 21.69552428 19.68086109 16.89461985
H 21.34628709 15.50014777 23.22941344
H 19.97570003 16.34817564 22.93579230
H 19.74572624 23.49417056 23.67197250
H 20.00548318 23.63251656 25.19076367
H 18.39809937 17.44020564 21.77389091
H 18.22495618 17.87620191 23.30587483
H 15.76306473 20.88190506 22.49650364
H 16.40513713 22.28899644 22.61132328
H 20.06228507 19.21511360 24.10264819
H 19.36875040 20.58112541 24.68093005
H 18.35484572 18.96839685 15.68277159
H 19.77797940 19.05170565 16.29800523
H 22.22431879 15.29345475 18.84617681
H 21.42711403 16.24805601 17.96230060
H 21.30202582 17.64278222 23.17941555
H 22.31064809 18.80694341 23.44832443
H 17.77267286 23.42274706 24.31411236
H 16.98804668 24.51774194 23.47820191
H 22.72897430 18.17806025 15.58181615
H 22.86127167 17.73767062 17.01797953
H 19.76359075 19.70127590 20.38009679
H 20.53743241 18.46193566 20.06571704
H 19.36578935 16.78823541 18.29733421
H 19.44055383 17.18645993 16.74070943
H 19.91716255 25.74373459 21.82688568
H 20.36144621 24.29828169 21.63641145
H 20.29116600 21.98085345 21.03907633
H 21.72979997 22.28077687 20.81850256
H 20.80570098 17.29159641 13.60599226
H 20.42056428 18.26836525 14.68499818
H 19.27774943 20.50157312 22.61685693
H 18.15733450 21.22412473 21.82863181
H 22.24218401 17.31291123 20.01588004
H 21.47170417 17.05418411 21.34799688
H 15.77318000 20.04912064 16.37071928
H 16.79470801 17.96738075 19.57397037
H 16.65936626 21.09175429 15.64004312
O 17.60626278 17.55270332 19.81614697
O 20.80459175 20.09229453 16.98641511
O 20.94971136 16.19183010 22.65567142
O 19.58912614 23.03563644 24.53863975
O 18.50208217 17.12422049 22.70692846
O 16.36845961 21.52857063 22.04741126
O 19.14316228 19.67466516 24.24512319
O 19.19090568 18.43274303 15.71846802
O 22.23838045 16.20782736 18.50697763
O 21.47176104 18.43281182 23.77704838
O 16.98042496 23.57721292 23.72647453
O 23.02274626 18.47824588 16.43410978
O 19.83194117 19.04960643 19.61850003
O 19.77585957 16.45211710 17.43284092
O 19.99798384 24.93402494 22.35702711
O 20.86295366 22.61235133 20.51535882
O 21.17305047 18.12943936 14.06430392
O 19.11601107 20.89981998 21.73205173
O 21.95463628 17.80423150 20.82640339
O 16.67804753 20.31982679 16.18863472
60
i = 0, time = 0.0, E = 0.0;
H 17.25992334 16.48577549 18.84020184
H 20.90470648 20.79482447 17.13056486
H 21.72165352 19.86658090 16.21069065
H 20.51253662 17.66995656 21.76065444
H 21.93655279 16.82963979 21.38691203
H 18.31637436 23.74147939 23.87835239
H 17.06356651 23.85160623 24.88966561
H 18.05931185 17.60413432 21.43412049
H 18.13821669 18.12625644 22.82822660
H 16.66829709 20.98679427 19.77354210
H 17.64920026 22.10060293 19.41181524
H 19.22378284 19.04628234 24.63528139
H 18.05764677 20.11281419 24.97773352
H 18.55560297 19.15968989 14.87432063
H 19.84320374 19.73492586 15.61930000
H 22.61647682 14.70261680 20.40729927
H 21.39470360 15.44637082 19.80568061
H 21.73542694 18.34450669 24.93273269
H 21.53122021 18.40521905 23.41822831
H 17.16917780 20.69644396 22.91185433
H 17.09696250 22.16897380 22.91726411
H 22.02375385 17.53532831 16.27409834
H 23.09148210 18.51424847 16.75882705
H 19.84038632 20.43379152 18.85500097
H 21.22253364 20.88989176 19.51151339
H 19.25682375 15.57529559 19.16105366
H 20.00145934 15.23560024 17.79822773
H 20.68979351 24.19262909 23.44427272
H 20.26420371 22.82436826 22.90403207
H 19.08298981 23.45022818 21.18550509
H 19.55230259 22.70188471 19.86979082
H 20.57315022 16.14962013 15.18612660
H 19.89944432 17.12040511 16.23114906
H 20.14190186 20.58955848 23.11934937
H 19.19959623 21.28430868 22.26136115
H 22.50620778 19.56061733 20.76569226
H 21.46348084 20.73985951 21.38007276
H 18.37436278 18.97250253 17.09979547
H 18.17545942 17.56355738 19.11688346
H 17.95080621 19.96000672 18.47236930
O 17.82683747 16.74794290 19.60764710
O 20.97786812 20.55987308 16.14908328
O 21.56616569 17.71912993 21.75429980
O 17.41591033 23.47014295 24.08242114
O 18.68249135 18.02728524 22.01191412
O 17.04231857 21.35301809 18.96138649
O 18.33496919 19.42100638 24.37490194
O 19.26143085 18.89036991 15.53975450
O 22.26033256 15.60778634 20.23849511
O 21.20762403 18.85899630 24.31890088
O 17.39235346 21.44264724 22.28773242
O 22.60128208 18.27846488 16.01714806
O 20.42813010 21.23486685 18.96962977
O 20.06225498 15.14023575 18.80562255
O 19.94885149 23.76264094 22.99150755
O 18.77617090 23.10198778 20.33771987
O 20.54256933 16.31596952 16.12777846
O 20.22586459 21.13936939 22.32868209
O 22.26334776 20.53816370 20.81944102
O 18.42751379 19.12048434 18.14158974
60
i = 0, time = 0.0, E = 0.0;
H 15.93362352 16.96698941 19.08908691
H 21.29546756 18.96274030 15.46143028
H 21.60247885 20.25642512 14.87803195
H 21.41313539 18.03064772 21.68837364
H 19.92191192 17.79223325 21.72169196
H 19.71298907 22.92853737 22.72022875
H 18.76839148 23.51245224 23.97262906
H 17.49380189 15.19981393 20.14619152
H 17.81218873 16.78201034 20.17936277
H 17.09406247 21.26863502 20.94360938
H 17.83875830 22.61647385 21.41520983
H 19.12246157 19.95631065 24.10350842
H 18.43091781 21.34421081 23.78154710
H 18.13662492 20.87380896 16.29405914
H 19.53400071 20.23051637 15.87335881
H 23.47459984 16.75616867 19.65686649
H 21.98560530 16.25990240 19.76108874
H 20.91969357 19.01301089 23.56580752
H 21.78061201 18.91840356 24.81917398
H 17.00282356 19.86296694 22.92109401
H 15.53731020 19.62011477 22.38310722
H 20.89686587 18.20818250 17.42098604
H 22.43302705 18.15909415 17.71853742
H 20.99169592 20.05210866 19.97415364
H 22.07807383 18.98690313 19.84464095
H 19.99362297 15.41418751 18.82389954
H 21.12476463 14.92901045 18.01069512
H 21.74698182 22.30144856 22.26343624
H 20.99519945 23.17002842 21.09224170
H 20.49851540 22.38180689 19.07380942
H 22.14222829 22.71661341 19.24607506
H 18.48156046 17.32398794 18.00466190
H 19.06471816 18.51101216 17.05380377
H 17.50401776 18.72068373 21.31162697
H 18.47105875 18.87800890 20.02703579
H 22.44505039 20.74950130 23.20303393
H 22.46698625 20.63199292 21.61574029
H 19.01627685 20.71429491 18.24197452
H 14.60746604 17.46426291 18.65836914
H 18.89064764 21.24825993 19.77978064
O 15.36383178 17.75365557 19.15420391
O 20.91490540 19.58094517 14.76041952
O 20.74731354 17.80842229 22.35055946
O 18.75191400 22.90914875 23.17419468
O 17.87337100 15.96527773 19.60761551
O 17.70547347 21.98954942 20.65597644
O 18.18516756 20.38075936 23.95761344
O 18.85778965 20.27552987 16.57168552
O 22.57894962 17.12588383 19.77264015
O 21.30954540 19.59635721 24.30083697
O 16.42413370 19.81227746 22.07272980
O 21.79360350 18.63714205 17.14893788
O 21.83684931 19.78723076 20.35048044
O 20.91689807 15.08025511 18.94885003
O 21.02184016 23.05603295 22.11326109
O 21.18741593 23.05257350 19.22250492
O 19.30761789 17.73808773 17.64485652
O 18.28524642 18.27893459 20.79067888
O 22.68041983 21.24381514 22.39687819
O 19.50858214 20.75020116 19.16682599
60
i = 0, time = 0.0, E = 0.0;
H 16.65891325 16.43897209 19.48324188
H 21.50016038 20.31550455 17.50219994
H 21.99822887 20.52462943 16.01685602
H 20.55581857 16.62761837 20.66272559
H 19.67951245 16.23229855 21.87988980
H 18.32302924 23.19465474 23.01177762
H 17.22043784 24.09280725 22.52272310
H 17.42225745 17.26590684 20.94026710
H 17.95162123 17.82963947 22.37017953
H 16.52201457 20.92608110 20.61501549
H 17.81295056 20.34342827 20.14675234
H 22.09844356 19.93447093 23.33181331
H 22.70679992 20.88230839 22.46269900
H 18.09190051 18.68336545 15.57850859
H 19.28671219 19.31703720 16.18359229
H 19.86837521 19.87299950 21.58087155
H 19.93912312 18.96501878 20.09968887
H 22.77929227 17.60440263 23.57794509
H 21.68045600 17.81015258 22.46473967
H 15.73782892 20.65872135 23.53911687
H 16.83654029 21.81453151 23.14674167
H 23.91882866 17.55246035 17.48056479
H 25.34852628 17.35576360 18.00233000
H 20.68182148 20.74610405 19.58300752
H 22.22532294 20.93305726 19.22564858
H 18.87332203 17.33548752 19.05362019
H 20.10580185 17.62334502 18.07193203
H 20.34714671 22.26225546 22.86998933
H 19.86895262 23.21443433 21.77363149
H 18.22479836 22.31400198 19.28650511
H 19.78522101 22.37647660 19.52365483
H 22.32202583 17.22240127 15.39893118
H 22.33222119 18.31345353 16.46999338
H 19.03215657 19.12142856 24.02079058
H 17.92997973 19.89253931 23.18513646
H 23.63809875 18.61365486 19.47466398
H 22.47300434 18.66582580 20.63021675
H 16.59277593 18.99655150 17.05723382
H 16.69119292 17.71247702 18.39471418
H 16.42575735 19.33055790 18.57113848
O 17.23827403 17.10026636 19.01499690
O 21.67463682 19.84408046 16.62607357
O 20.49048517 16.65844158 21.62371685
O 17.31351396 23.42119588 23.17651792
O 17.52444262 17.01279179 21.92695757
O 16.97870843 20.59460246 19.81865862
O 22.09388805 20.87933601 23.16892165
O 18.45393933 18.81502305 16.44868055
O 19.80312086 19.84965510 20.57497886
O 22.40062464 18.27242979 23.00127849
O 16.58060307 20.79836838 22.99580595
O 24.56199741 17.85200035 18.14483695
O 21.30509471 21.19170188 18.89919159
O 19.87428411 17.57160606 19.03512503
O 19.82373426 23.08361435 22.70423781
O 18.93960758 22.81632605 19.77230507
O 22.19281053 17.28734575 16.35548056
O 18.82032396 19.48210043 23.13590943
O 23.09628570 19.23594239 20.03703317
O 15.90637124 18.97945377 17.79863035
60
i = 0, time = 0.0, E = 0.0;
H 16.86379408 17.27401194 18.24502514
H 21.54200301 20.30173068 17.51875423
H 22.19138328 19.37089312 16.40768332
H 21.70853833 17.35011074 22.69114818
H 22.75846589 18.27883015 22.15578745
H 19.54215385 22.66747024 23.92298049
H 19.09026953 23.28806842 25.29300948
H 17.81942095 17.02656974 20.77826366
H 18.58466106 17.89674765 21.91127525
H 16.55468146 22.10550515 19.70845425
H 18.14585762 22.19628356 19.62378000
H 20.09681960 20.22140173 25.21941705
H 18.83020203 21.19430542 25.22948767
H 19.30645601 21.46679944 14.75639299
H 20.31964892 20.72109527 15.75643385
H 19.66541641 16.23301483 21.85834107
H 20.55296798 14.92996642 21.95948827
H 22.04416556 19.28069547 24.44681362
H 22.95610429 19.60239366 25.55730078
H 16.98521936 22.62062208 22.01098548
H 15.88688892 23.56247007 21.47306091
H 22.64186772 17.90216688 17.81351957
H 21.65139491 17.10066720 16.81429578
H 19.87129239 19.75872260 18.68463018
H 21.13420527 19.12491402 19.53926979
H 19.06578473 16.39131455 17.72579024
H 19.67716018 16.97142288 16.45006463
H 21.17081685 21.93388587 22.93935808
H 20.12836272 22.29398155 21.68553720
H 20.51454395 22.58045804 19.76557068
H 20.42732495 21.05115813 19.89815446
H 20.69010230 18.54737312 14.99102144
H 19.19901878 18.98332362 15.08800591
H 18.80333966 19.79333927 23.66556422
H 17.55073805 19.74959778 22.79327436
H 20.91556632 16.84401415 20.38702279
H 20.85588532 17.00694130 18.79973873
H 18.47675568 20.56480550 17.03391842
H 18.20327670 18.08879050 18.55377558
H 17.67334348 20.70253878 18.42676410
O 17.70735082 17.25130025 18.75307608
O 21.65557365 20.22957337 16.53399889
O 22.28499246 18.10533234 22.95549943
O 18.86337797 22.65442865 24.61262594
O 18.37615865 16.98122368 21.57754142
O 17.32786366 22.20093414 19.12297126
O 19.10460451 20.19300175 25.17557472
O 19.33892998 20.84724870 15.53521013
O 20.66145627 15.89257147 21.93187877
O 22.17696240 20.02740646 25.09572375
O 16.05012842 22.56117613 21.55085506
O 22.47627485 17.70136358 16.84566564
O 20.79726360 19.95716845 19.04525992
O 19.93624520 16.45120565 17.25134969
O 20.60264983 22.65627041 22.56523012
O 20.01096921 21.91391383 20.27511525
O 19.79284930 18.11420564 14.95468326
O 18.45844281 19.40967762 22.78271429
O 21.34143436 17.31063751 19.66211416
O 18.19688679 20.03174701 17.88178867
60
i = 0, time = 0.0, E = 0.0;
H 19.05607893 18.97883614 17.47194390
H 22.40554298 21.31796867 18.56600731
H 22.87571529 20.15179520 17.74333216
H 20.39192369 16.31866005 20.95292933
H 18.93978062 16.94222918 21.24265253
H 18.69348320 19.74631955 24.07558134
H 18.15545918 20.78513723 25.01342267
H 17.96489674 17.85200802 19.63790100
H 17.06674656 17.88412737 20.95745780
H 17.05202410 23.90786274 19.42320806
H 18.45202727 23.13222099 19.86889144
H 20.25518890 18.47821506 24.06415567
H 19.13149078 17.51224597 23.97862166
H 20.47286106 18.84525274 16.23193145
H 20.90980959 20.19074510 16.99916347
H 22.62128619 16.11567477 18.80881813
H 21.03078962 16.36264699 18.79908150
H 22.24158789 19.25420028 23.05241830
H 21.92336760 19.35618282 24.62347524
H 17.24631026 21.67051667 23.06875520
H 16.64345095 22.36795813 21.69331763
H 22.53539205 18.10289808 18.47741870
H 22.56206598 17.90070373 16.97295424
H 20.95330392 21.89941290 20.43433989
H 21.64850261 20.56147515 20.42346435
H 19.37144802 15.28718398 17.93789999
H 18.96866757 16.87894989 17.80648032
H 20.95777391 21.55377370 22.76532856
H 19.58633311 21.60022588 23.38365084
H 20.52307349 24.32549469 20.42390387
H 19.96357119 23.46359826 21.63689866
H 21.37157452 16.53157710 14.80625653
H 20.66292123 16.77321508 16.01747740
H 16.63606611 18.91542693 22.84928624
H 16.07963785 20.10863416 22.14478325
H 22.37642446 18.02168547 20.50413551
H 21.28397170 18.51452999 21.40464928
H 17.78142103 21.03440352 17.35478832
H 17.71547293 19.13631938 18.11126213
H 17.19780077 21.80578725 18.52014914
O 18.42367185 18.41751653 18.08395433
O 22.40048913 21.01639544 17.59789194
O 19.90857477 16.83613189 21.64701605
O 18.39615107 20.65907670 24.04806937
O 17.75989717 17.31562368 20.44586019
O 17.45961017 22.99963652 19.68882561
O 19.41929526 18.28355084 24.49045348
O 20.09153747 19.71145857 16.59614589
O 21.84350416 16.40547776 19.40140113
O 21.58026202 19.35148771 23.69979387
O 16.42972259 21.85906854 22.56680221
O 23.17641219 18.13735557 17.74157628
O 21.81117972 21.49443697 20.25191680
O 19.68286853 16.18031099 17.76046876
O 20.24491239 22.17277701 22.89932902
O 19.75098843 23.77468026 20.66979017
O 21.33737966 17.22237693 15.50678002
O 16.13310108 19.08011695 22.00231367
O 22.08033860 18.86980853 20.97521346
O 17.12912340 20.91682763 17.99312248
60
i = 0, time = 0.0, E = 0.0;
H 16.44185565 18.74873098 17.44755307
H 20.77417194 20.37433679 17.97196797
H 20.70340168 20.85582792 16.44842407
H 20.91891970 15.61366092 19.61039219
H 19.80645777 16.63437060 20.05858368
H 19.81725209 22.98627411 25.39605091
H 19.37032521 24.38850677 25.63802915
H 17.39940282 17.63307432 19.29234406
H 17.34645054 17.27002295 20.79985595
H 17.04718843 22.82278766 21.93993035
H 17.00566788 24.15947982 21.09930778
H 18.89449235 18.55532874 23.71231891
H 19.59243548 20.00832917 23.80878395
H 17.62721807 20.82058414 17.16924211
H 18.79443852 20.33695420 16.46037944
H 22.23280356 14.32417068 18.49374666
H 21.05731500 14.93652968 17.76159402
H 19.93115878 16.53301622 22.07009882
H 19.82653994 16.08284572 23.54247927
H 16.48171385 22.32608366 24.25835943
H 16.96144762 21.05599656 23.56238088
H 24.51396572 19.97137343 18.57762457
H 23.27589262 19.20029517 19.20038947
H 20.77022963 20.06261861 20.26138522
H 22.12241099 20.65270532 19.46184805
H 20.69384007 15.74131999 15.40330637
H 21.36163314 16.87411584 16.18421978
H 21.42192357 21.40188788 24.42503410
H 20.44206221 21.81481006 23.35200589
H 20.86548200 22.01046733 20.91239776
H 19.60844959 23.09934628 21.43147113
H 23.18837423 18.39092177 15.93520262
H 21.68535736 18.78917841 16.22255192
H 19.04422557 19.70702028 21.76569798
H 18.70120331 18.89762675 20.41463154
H 22.09718183 17.33603133 20.03461223
H 23.04184037 17.96607568 21.15284512
H 17.36267664 22.01523369 19.58297284
H 16.67732302 19.65218100 18.78230300
H 18.31541238 20.89812854 19.79091217
O 16.30582678 18.74651492 18.43905232
O 20.66655570 20.11089754 17.03037541
O 20.74866150 16.34886535 20.30117511
O 19.38819539 23.52566080 26.12965184
O 17.88483845 17.12221373 20.00383002
O 17.45282153 23.30494882 21.15350979
O 18.84319995 19.55878729 23.37060112
O 17.89259141 20.67333915 16.25511374
O 21.25746106 14.37525408 18.54439000
O 19.63191240 16.80108065 22.93371833
O 16.32825036 21.88260285 23.41576797
O 23.55993719 20.07040285 18.77497905
O 21.17489382 20.81896274 19.65127259
O 20.89638546 15.94666150 16.34356858
O 20.45841391 21.50023257 24.30031791
O 20.56101283 22.69631544 21.64462579
O 22.24142732 18.29239602 15.60949503
O 19.06962429 19.73880821 20.77012368
O 22.98231628 17.90975519 20.18308247
O 17.61924951 21.19459452 19.13741170
60
i = 0, time = 0.0, E = 0.0;
H 16.73855143 16.48063671 19.17694234
H 21.48743337 17.84583267 18.54382214
H 20.15943357 18.32331277 17.72741941
H 21.74449367 16.09848700 22.36084821
H 20.70415099 15.72654971 23.46864162
H 18.78914936 23.38929568 25.16289359
H 18.46355370 23.04077483 23.63114797
H 17.45718700 15.88202178 21.47286304
H 17.22152977 17.29669980 21.05867857
H 18.20398183 23.48591422 18.81597602
H 16.69943430 23.55328471 19.03939978
H 21.51475631 20.42354139 23.82731459
H 20.16712680 21.47935456 23.77329976
H 22.39774603 18.00328443 15.23687807
H 21.14639308 17.97292339 15.53126062
H 22.69743142 17.78273826 19.93202743
H 21.52111888 16.69684629 20.34696454
H 23.35796341 18.40957555 23.89212998
H 22.03863934 17.86481802 23.11014156
H 17.42377972 20.36201310 22.06575740
H 16.31527137 21.39561525 22.65966283
H 24.23613788 19.81836367 19.63005614
H 23.36546189 19.62762849 18.38584823
H 21.37852171 20.71275877 17.70529517
H 20.96009782 20.59007222 19.21175498
H 19.40206889 16.07483713 20.11209886
H 20.46346654 15.37440368 19.16290242
H 18.05523817 22.41835473 22.12537401
H 19.25354792 23.23358413 21.46409214
H 20.61789985 24.27212151 19.55606898
H 20.49840129 22.82180687 19.07819714
H 17.65780938 17.99677229 18.06497859
H 18.16557056 19.37617199 17.62096153
H 18.96452667 19.50452553 20.92645888
H 17.91388325 19.24154883 19.78839776
H 21.08608899 18.95025297 20.82485422
H 20.68003867 20.17809050 21.79662172
H 17.37769397 21.53786540 17.62683668
H 16.03776928 16.11984120 17.76212249
H 18.57656813 21.17551691 16.62074246
O 16.07804056 16.77225886 18.49498035
O 21.19114420 18.31209127 17.71833932
O 21.67020057 15.90378391 23.31872939
O 18.66153514 22.63433723 24.56434460
O 17.56056136 16.45172077 20.69221898
O 17.33118501 22.95713879 18.69894051
O 21.06592138 21.15259564 23.34238811
O 21.65742139 17.57592487 14.77186265
O 22.12752610 17.42604403 20.61660151
O 22.56752013 18.73499884 23.30426967
O 17.23955370 21.08982409 22.76622213
O 23.75755767 19.13978698 19.11865858
O 21.02028617 21.28382501 18.47399751
O 20.19258427 15.56178191 20.04139787
O 18.46289433 23.32738128 22.08963751
O 19.91176152 23.64639204 19.30900701
O 18.44919157 18.63453803 18.19418376
O 17.97224203 19.28653141 20.77797537