30
i = 0, time = 0.0, E = 0.0;
H 18.66100283 16.99625869 17.92019491
H 23.98509114 16.90093328 18.30779188
H 23.12146692 17.93850657 17.51082107
H 15.35392234 17.05261159 21.10255412
H 16.05801055 17.64610064 19.88800693
H 20.17278010 22.98232628 18.99996810
H 19.71195794 24.28122086 19.48999076
H 19.31176770 15.84024506 19.85721966
H 17.98076868 15.38795613 19.21483445
H 21.16463572 22.08226538 16.89289018
H 21.15395687 20.95189557 18.00309709
H 17.23983185 18.74749180 18.57635119
H 15.93467617 19.68853419 18.52178823
H 21.49030472 18.64023902 18.97467278
H 20.47429324 19.68488892 19.61591730
H 19.22714899 18.96187646 21.37578211
H 19.65235516 18.00566960 22.52454288
H 19.12473596 21.50934886 20.15074268
H 17.99369909 20.59441977 20.20714469
H 19.25763921 18.56375049 17.81852289
O 18.47772797 17.99021732 17.71343746
O 23.31040743 17.60286957 18.38903872
O 15.80931950 16.78211609 20.29632237
O 19.52486966 23.33422622 19.67146277
O 18.90862826 15.62271298 19.00835515
O 21.13469157 21.99763911 17.89626712
O 16.62126126 19.31155975 19.14806610
O 20.97115207 19.48256231 18.76194100
O 19.64605703 18.05168829 21.54468437
O 18.90920161 20.62520097 20.53781364
30
i = 0, time = 0.0, E = 0.0;
H 20.19706917 18.13807549 15.51768799
H 22.40215647 19.21196157 22.78833477
H 20.83349068 18.86409589 22.52031882
H 19.52956271 15.86720612 20.84877162
H 20.09003932 17.00343194 19.97694863
H 17.19105192 21.34687178 19.18822072
H 17.69920181 22.40787417 20.17563713
H 21.33417760 18.46967085 18.92448562
H 21.96409034 18.10441392 20.27239674
H 20.41733426 20.79743962 17.57193498
H 21.52797719 21.64710348 16.98360154
H 18.10022644 17.78360989 17.47195010
H 18.24699848 16.98181736 18.76141157
H 19.42292386 19.53278616 19.67002144
H 18.84310411 20.80262390 19.12005387
H 19.06682029 17.81907250 21.54335493
H 18.21929456 19.22393688 21.92558467
H 15.75799157 19.84401859 18.32628877
H 16.96334433 19.03968188 18.85144186
H 19.86926571 19.37124864 16.42622387
O 19.67485917 18.40077620 16.31479745
O 21.79461266 18.56248217 22.43304030
O 19.22309302 16.64796832 20.40186541
O 17.78641771 22.14378560 19.22288480
O 21.50875948 17.70468031 19.45665892
O 20.70471531 21.16377493 16.70262959
O 17.63001372 17.54821504 18.26665172
O 19.61005114 20.18181060 18.96026241
O 19.14930391 18.77104122 21.91812830
O 16.19330507 19.68883371 19.17001665
30
i = 0, time = 0.0, E = 0.0;
H 17.33696079 20.80843962 18.17690162
H 20.46041394 17.60678216 20.78575944
H 20.46182901 17.06755128 19.36594935
H 18.09545510 17.15199840 21.51436589
H 18.05210571 16.77676093 20.00321755
H 21.02299510 19.59745720 19.30604730
H 21.38319491 20.52011108 18.17851801
H 19.15388686 15.64131175 17.47380506
H 19.13550036 17.12784661 17.46780772
H 21.17713203 20.55520896 15.81585486
H 21.56658070 21.73799188 16.52877315
H 16.02871134 19.25857050 20.27134214
H 17.27972075 18.49372376 20.14010801
H 19.62544952 19.49011751 17.83463555
H 18.57143622 19.39901232 16.62680565
H 19.32635865 19.07642054 22.21402907
H 20.00886332 17.91826613 22.98422335
H 20.18422969 20.77997930 21.13996114
H 18.78212833 21.00265006 21.96149878
H 18.56624373 21.50994303 18.46416585
O 17.84112821 21.53681952 17.78406800
O 20.63352095 17.90354470 19.83339115
O 17.49531328 16.78724653 20.78625187
O 20.90520509 20.52461934 19.03648089
O 19.32164575 16.39546473 18.07738267
O 21.96421876 20.88085487 16.31192693
O 16.82880460 19.36568762 19.75978151
O 19.33615695 18.91159994 17.05927128
O 19.35567578 17.99239737 22.26880340
O 19.68525382 20.56155462 21.96806694
30
i = 0, time = 0.0, E = 0.0;
H 18.69019129 19.20383626 16.47001173
H 22.35892553 16.97507355 20.13035957
H 21.48848171 18.07751978 20.66801419
H 17.30050925 15.66382181 21.39459238
H 18.33431451 15.86003247 20.17756520
H 19.22739359 24.99055933 18.25559840
H 18.45577209 24.93690354 19.61494463
H 18.94616355 14.95929871 17.79501506
H 18.54688730 16.38934170 17.95125414
H 19.85657378 22.06084113 18.17070476
H 19.66922636 21.33110804 19.52121034
H 17.56410366 17.88981524 20.02210884
H 17.73922468 18.61443673 18.52723349
H 21.79209830 18.59280638 18.37492063
H 21.65123451 20.04994686 17.85107559
H 19.44672829 17.80904502 21.80288841
H 19.33239461 19.14609897 21.17935343
H 17.91756528 20.89634246 21.27102708
H 17.97704131 19.85346849 19.96552016
H 19.78640008 18.66496331 17.26683137
O 18.85269926 18.43784629 16.97662275
O 22.31250515 17.96756610 20.07936775
O 18.01328582 16.20074186 21.07026228
O 18.42127610 24.66767803 18.64717018
O 18.31489912 15.47314347 18.31484295
O 20.24548415 21.36522029 18.75869895
O 17.31130510 18.60572622 19.42000750
O 21.40519591 19.12138444 17.59320628
O 20.03091554 18.49400017 21.45371117
O 18.46804948 20.49843829 20.56167725
30
i = 0, time = 0.0, E = 0.0;
H 18.62699828 18.85082486 17.34941085
H 22.43557413 18.17350290 20.20977384
H 23.25246783 18.29495245 18.87163118
H 18.29644279 18.80095271 20.87105427
H 18.05596519 17.27104917 20.89626197
H 19.49940830 21.45107841 17.73616458
H 18.56780334 22.46731884 16.84086809
H 20.77717100 16.98090209 18.86472238
H 19.26776231 16.97565767 19.03860685
H 19.89125945 21.73096251 21.34219746
H 18.91566046 20.90143524 20.46384530
H 15.82743489 17.68565912 18.96877038
H 17.01212300 18.13424740 18.22849428
H 20.96080129 18.91327633 18.10527194
H 20.23489431 19.73430852 19.07963358
H 21.04250247 18.01342613 21.45216517
H 20.89044897 19.58006419 21.53219950
H 17.42327816 21.08967465 18.96405391
H 16.91175912 19.76446596 19.60911581
H 17.64374145 18.98969694 16.15277997
O 17.91591426 18.38344132 16.85826225
O 22.39603920 18.06812547 19.18867441
O 18.71995426 17.94596340 21.07049862
O 18.69081707 22.07700173 17.71340931
O 20.03852515 16.37860946 18.80604487
O 19.88941811 21.01005093 20.68112164
O 16.69232013 17.99956220 19.12950676
O 20.12974157 19.44907663 18.14551912
O 21.54782346 18.82402964 21.61950352
O 17.38957172 20.58007080 19.77852588
30
i = 0, time = 0.0, E = 0.0;
H 18.95084416 17.29733136 16.28393608
H 21.06072120 17.86076088 20.90592913
H 21.10527421 16.70443807 19.88816092
H 17.04144806 17.55937866 20.57289337
H 17.98026854 16.41015891 20.75332645
H 19.54213375 24.16136949 19.40269205
H 19.88047978 22.86496909 18.44364279
H 20.30766968 14.91362350 18.91727514
H 19.74972349 16.19972225 18.36340143
H 19.67108069 21.89819023 16.81226800
H 20.79791943 21.05028712 17.43963202
H 17.00078621 18.64075865 17.70584463
H 15.94270681 19.48865007 18.53623601
H 20.85668887 18.82663003 19.02433098
H 19.64431836 19.84701881 19.10149223
H 19.01826704 17.96070853 22.12281589
H 19.31965476 19.17112760 21.50634774
H 18.57160435 21.84241042 19.54054233
H 17.81994838 20.36334804 19.47187588
H 19.55167751 18.20451550 17.44515161
O 18.85229752 17.47668833 17.22749093
O 21.63462852 17.54202930 20.16613913
O 17.55999746 17.08268098 21.26622149
O 19.43133323 23.19763271 19.30985292
O 19.83894123 15.69961753 19.19740310
O 20.63048541 22.03324576 17.13385802
O 16.82284665 19.00543843 18.60996719
O 20.32986607 19.49686489 18.41453181
O 19.81495840 18.44526335 21.94128051
O 18.60315497 20.89637795 19.87170178
30
i = 0, time = 0.0, E = 0.0;
H 20.30478308 17.36845555 16.45640785
H 21.93116100 17.44414962 21.25061420
H 20.45756686 17.81916990 21.59514859
H 16.97144609 17.77735247 19.74364894
H 17.70198937 16.43801258 19.97536422
H 19.31307596 24.14972833 17.74148795
H 20.18501063 23.19177754 18.67290719
H 19.85968539 16.24223136 20.12990263
H 19.79665979 16.22250905 18.61875481
H 22.05164886 22.55985019 19.09501250
H 21.21938119 21.45406033 19.77545927
H 18.06799772 18.18635842 17.00440089
H 17.34574383 19.23389563 16.07841010
H 20.64415866 19.09960557 19.63240633
H 19.65041848 20.10248079 18.91415244
H 18.35945141 17.60917363 21.80311858
H 18.72794367 18.76625715 22.58422252
H 18.34249721 21.76183809 18.60750832
H 17.64957363 20.27021886 18.21219100
H 20.20202481 18.35066951 17.68549705
O 19.76528106 17.58855403 17.23330540
O 21.03022894 17.51858764 20.87459192
O 17.15344448 17.14470515 20.44556637
O 19.48124300 23.18787320 17.92819538
O 19.47517342 15.68967395 19.41586849
O 21.41631851 22.44031734 19.82022954
O 17.24931744 18.73673440 16.98692839
O 20.54308818 19.74022385 18.92203344
O 18.95944214 17.82194281 22.53140786
O 18.13190554 20.83192487 18.89596910
30
i = 0, time = 0.0, E = 0.0;
H 18.48033080 19.89120270 16.77896493
H 22.70159356 17.28280371 20.74235160
H 21.06855254 17.21757494 20.91865761
H 16.38646255 15.40114189 19.39514445
H 17.83102245 15.84298013 18.97349228
H 19.11883305 23.46629140 19.51031129
H 20.11596263 22.62978216 18.78207666
H 19.47231442 17.26004984 17.75147721
H 20.53517231 16.43315556 18.45287212
H 22.35169718 22.53084759 18.40990845
H 21.46095014 21.20293578 18.47576741
H 16.57260220 18.24100867 19.52001347
H 17.19244625 19.34065265 18.57482592
H 21.28451452 19.01149212 19.80643498
H 20.21771525 20.19785124 19.90110080
H 18.37093901 17.12961291 20.69805168
H 18.99200063 18.54673104 21.12037825
H 18.76544302 21.30572873 20.35270143
H 17.91004737 19.98777133 20.31103093
H 19.47681519 19.59341830 18.01546562
O 18.71480005 19.21893187 17.52586965
O 21.84005192 17.47975868 20.32010791
O 16.93169607 16.16066266 19.14576055
O 19.22263964 22.53915817 19.23173516
O 19.74013890 16.30658403 17.91960173
O 21.54287121 22.07620584 17.97052432
O 16.65725398 19.22677462 19.41042689
O 20.85095283 19.78403228 19.27794103
O 19.11176090 17.55469333 21.17158501
O 18.62331766 20.45043179 20.89692421
30
i = 0, time = 0.0, E = 0.0;
H 16.74518760 18.39115085 16.68111058
H 21.10740741 17.58155851 18.91237423
H 20.47627021 18.79034938 19.71271316
H 17.28283168 16.82109621 20.61590211
H 17.87403805 16.36952268 21.96048594
H 21.33032283 21.26918917 20.97613322
H 21.69712001 21.87197842 19.60750091
H 19.24238615 15.92366820 19.81556079
H 20.28729133 15.06450927 19.06176284
H 21.93531218 20.93290617 17.34946462
H 22.01825871 20.10701420 18.54331119
H 15.68252949 18.41114829 20.38138312
H 16.32317746 17.89792742 18.99238788
H 20.08520843 19.02742001 17.53562115
H 19.58632734 20.41968504 17.71028063
H 18.87054113 18.55920556 21.12528410
H 19.09881464 20.11384087 20.70087123
H 19.68615626 21.75196576 19.99986042
H 18.27769753 22.07142338 19.27680632
H 17.97539556 18.93703620 17.40832080
O 17.04203416 18.58318362 17.60522153
O 21.04369915 18.55845655 18.88200162
O 18.15098498 16.80743321 21.10476516
O 21.17328704 22.10096202 20.44293066
O 19.98642207 15.99034997 19.17193957
O 22.29144845 21.00383516 18.22742424
O 15.79854351 17.60621274 19.85481262
O 19.50066309 19.68728859 17.05539920
O 19.56813703 19.27713361 21.03965764
O 18.85183230 21.32101404 19.49412994
30
i = 0, time = 0.0, E = 0.0;
H 19.62794040 19.33465192 16.27985787
H 23.28444804 17.07429406 19.83823306
H 21.86952926 17.43597717 20.25712565
H 18.91817494 17.44847333 18.48231622
H 18.35312875 16.29479118 19.39751651
H 17.14935690 21.29965103 19.63430873
H 17.85729207 22.56934766 19.25769792
H 16.44327442 15.50122884 17.68871523
H 16.58195201 14.19473926 18.50080483
H 20.05779855 21.58984525 18.36796173
H 20.23600204 23.07798775 18.34896454
H 17.16182597 18.92998979 19.47128131
H 17.77096598 19.59925622 18.32751058
H 21.69219368 18.81220328 19.10697358
H 20.74843700 19.76082352 20.01590497
H 19.73007265 17.65303973 20.80471092
H 20.57024690 18.46822620 21.80575536
H 18.88980799 21.29141569 20.84467925
H 19.84231920 21.16233935 22.12072698
H 19.92304221 19.31827809 17.70323115
O 19.40228564 18.86044589 17.04980008
O 22.46279128 17.38533981 19.42430531
O 18.71433865 17.21950095 19.47140103
O 17.54810961 22.14248491 20.09393269
O 17.14605489 14.90963695 18.06188449
O 19.55823669 22.39797726 18.10598332
O 17.10813811 19.82469510 19.02190877
O 21.09152240 19.66768674 19.08262921
O 20.55900800 17.57676359 21.38047392
O 19.74565339 20.91958661 21.19307388
30
i = 0, time = 0.0, E = 0.0;
H 18.21924185 18.72574716 17.01521419
H 22.72907561 18.20440298 21.92573693
H 21.22095434 18.39364060 21.48221881
H 18.11218618 16.08921131 20.02368384
H 19.16470451 16.31588153 18.84211731
H 16.48906615 22.54960543 19.17857311
H 18.08090056 22.30618769 19.27850435
H 20.41752713 17.99460374 17.58862436
H 21.30082116 17.59516598 18.83742353
H 19.62181182 20.86503912 17.80489984
H 20.47432613 21.42583514 18.93954319
H 17.22191530 17.15625955 18.23997583
H 16.90933204 18.51937818 18.79929777
H 22.14221197 19.77054926 20.05387810
H 22.60477083 20.27443093 18.66750883
H 19.36899927 18.65639663 22.96369707
H 18.96741100 18.73606631 21.43702870
H 17.30517455 20.24858180 20.18681632
H 18.61849577 19.74870826 19.50539427
H 19.03764907 19.37840305 15.77055335
O 19.06393854 19.21569863 16.74830238
O 22.16822277 18.31688403 21.12914756
O 18.25632662 16.00297259 19.10134852
O 17.18031610 22.19857216 19.79243337
O 20.64110574 17.27401446 18.20107256
O 19.59681380 21.56535804 18.49067786
O 16.91208396 18.01502043 17.92528004
O 21.95003942 20.44308019 19.32643705
O 19.62855558 18.29959465 22.05220587
O 17.85690875 19.43824947 20.10044231
30
i = 0, time = 0.0, E = 0.0;
H 19.64205785 19.75325964 16.88624227
H 21.80061718 17.92329324 22.09399890
H 20.72314615 17.46376775 21.22163272
H 17.48852073 15.51021980 18.73059308
H 18.85354339 16.23954544 18.05509388
H 18.47564064 23.91014311 20.13864640
H 19.20359850 22.79248230 19.34478764
H 20.18309901 17.55675477 17.23899944
H 21.01660787 16.32509426 17.67607501
H 20.51073723 21.17209108 18.76046663
H 20.88462619 21.96006943 17.51976571
H 15.80348095 18.66737066 18.24863775
H 17.22180858 18.08294868 18.49126184
H 21.15152934 19.17594474 20.25809799
H 19.68037639 19.87150462 20.03172362
H 18.73858967 16.98169669 20.33651001
H 18.71088507 18.35652211 21.03002632
H 18.18435218 21.20359847 20.41796695
H 17.43649730 19.86820923 19.83645566
H 20.41369092 19.32558053 18.28345903
O 20.23574028 19.09117651 17.30854538
O 21.70081795 17.69569434 21.17250172
O 17.97793854 16.37638054 18.71969058
O 18.61784385 22.95235629 20.14829475
O 20.16572825 16.54398328 17.37332061
O 20.15092865 21.81327361 18.16858953
O 16.65408675 18.83054494 18.77495923
O 20.63908709 19.85341202 19.75613848
O 19.03905348 17.47258238 21.15434274
O 18.19173355 20.19132583 20.41320783
30
i = 0, time = 0.0, E = 0.0;
H 18.40653055 18.67255785 16.90671073
H 21.76003461 17.46241662 19.09932551
H 22.31846839 18.00594550 20.22488091
H 19.26350329 16.78350379 20.91799127
H 18.85756477 15.15025580 20.88705623
H 18.75506007 22.39031127 21.37041211
H 18.72347856 20.93681129 20.95247230
H 16.92354950 16.35949231 17.78506703
H 18.33441076 15.91491951 18.47794889
H 20.73680797 21.83461445 20.78795220
H 21.61359773 22.81846445 20.00765385
H 15.57468267 19.28253110 17.77348646
H 14.92802289 18.64825388 18.86542568
H 21.83459497 19.53957368 17.92715782
H 21.13526289 20.76852200 18.55518506
H 20.14780882 19.28145855 21.47420979
H 19.84750522 18.87983774 20.15337716
H 18.35973785 20.09982251 18.58918862
H 17.41208244 19.83096277 19.76574795
H 19.25272952 19.81177237 16.78083043
O 18.30510138 19.62481768 16.72994498
O 22.59630855 17.92301386 19.24638680
O 18.68292687 16.06464301 20.53580904
O 19.05384374 21.54031760 21.72856359
O 17.84520915 15.95923472 17.61111965
O 21.40296362 21.86672695 20.07894820
O 15.80482202 19.05727356 18.68662237
O 21.17634800 20.26329686 17.67279245
O 20.29804622 18.45191980 20.92077354
O 18.32948869 20.04857275 19.60841633
30
i = 0, time = 0.0, E = 0.0;
H 19.25934485 18.34194445 15.87701390
H 21.14279994 19.49662194 21.07746500
H 20.15391874 18.24847276 21.28516584
H 15.96997922 16.15174081 20.38039891
H 17.19745024 16.29062368 19.40045248
H 19.55887915 23.40734763 19.24170128
H 20.86278482 22.45252392 19.42414693
H 18.92683601 15.26460641 18.44752038
H 19.02628311 16.75902593 18.06584483
H 22.24900009 20.70073093 18.34682624
H 23.44651353 21.66627415 18.81199858
H 16.36844615 18.86050043 18.96497055
H 17.38406326 18.79132859 17.79701820
H 21.36746476 18.50849512 19.23618535
H 20.38678247 19.65163198 18.71395686
H 18.23597992 19.31582718 21.30646911
H 17.73397972 17.91010880 21.23339999
H 19.38258840 21.16372025 19.72607458
H 18.18944807 20.17799490 19.00735771
H 20.03566370 18.42113231 17.26110990
O 19.31233035 17.90944550 16.77088320
O 21.10963400 18.44319517 21.02882296
O 16.43981371 16.79426439 19.83888912
O 20.02324941 22.75539701 19.83889007
O 18.71999046 16.15944078 18.80847880
O 22.47745521 21.61790478 18.73093323
O 16.80919323 19.44298552 18.19874402
O 21.15659246 19.04989232 18.42092479
O 18.31758008 18.44971175 21.74809575
O 18.95956406 20.23373973 19.66764079
30
i = 0, time = 0.0, E = 0.0;
H 18.52965573 19.03142875 16.01125669
H 22.64660542 18.95513523 20.20362046
H 21.35666907 18.62103574 20.91010261
H 17.98930308 16.82478356 20.05228720
H 19.47353554 16.53579416 19.55082350
H 20.56181364 21.40975409 20.77436048
H 20.06459806 22.71336140 20.14924169
H 20.16940078 17.00482172 17.38131145
H 19.84201771 15.58850999 17.30815052
H 19.29225043 21.32910220 17.49913742
H 18.31440766 22.58125941 17.25714835
H 15.94432984 18.08601969 18.08886903
H 17.56686202 18.15133628 17.86140952
H 20.55052666 19.74115379 19.23640691
H 18.94105914 19.63484158 19.21409723
H 19.70595978 17.56687263 21.44070479
H 19.52536659 19.03876618 21.95862210
H 17.90629412 20.70952176 21.16139350
H 17.16015523 19.62176678 20.21386261
H 19.44802185 19.05474309 17.23966152
O 19.08451531 18.47233514 16.53760899
O 21.74238534 19.29064645 20.27043836
O 18.87858704 16.65984960 20.36757475
O 20.02869015 22.22115067 21.00137737
O 20.35162652 16.17583133 17.92648535
O 18.74569042 21.80445515 16.82619391
O 16.85298413 18.15715434 18.54532449
O 19.72687339 19.98631007 18.66507105
O 20.16406156 18.25127293 22.04690055
O 17.86902709 19.79794940 20.87116266
30
i = 0, time = 0.0, E = 0.0;
H 20.12551067 19.37815013 16.40694536
H 20.33536969 17.87151538 19.81546020
H 21.28757836 18.49650226 20.77129121
H 17.98866755 16.30206618 20.02271350
H 18.55415702 16.86159597 18.70229910
H 18.46659812 22.43595737 22.71243359
H 19.08136621 22.27457653 21.22427588
H 20.09940067 17.13733895 17.04836158
H 20.92783007 16.75150683 18.43481514
H 20.27222143 21.51360059 19.21755008
H 20.87865009 21.50792017 20.60005520
H 15.30653741 16.99743787 17.35415984
H 16.37357976 17.58833042 18.27556083
H 21.03480646 19.56778931 18.45609735
H 19.45445850 19.88555580 18.54386117
H 20.81669448 20.04100438 22.69956037
H 19.61150458 19.50856240 21.71281030
H 17.87879653 20.03992957 20.69672962
H 18.06068236 18.65360252 19.92708312
H 19.50323802 18.92373457 15.05403902
O 19.73067339 18.58706873 16.00579379
O 21.31741980 18.00713496 19.83485484
O 17.89078179 17.07958849 19.44394252
O 18.43432105 21.89772021 21.88667068
O 20.16132475 16.49524250 17.87930655
O 20.55455503 22.10731187 19.94834097
O 15.93806091 17.71089543 17.32744321
O 20.29307987 20.17349176 18.06821757
O 20.50831693 19.32479547 22.10534240
O 18.54856785 19.46289734 20.29589952
30
i = 0, time = 0.0, E = 0.0;
H 17.65455717 18.22990593 16.02236550
H 22.54443226 17.79021762 18.70486872
H 21.25144504 17.75113510 19.59335447
H 17.96622859 15.32079526 21.35519733
H 18.50553313 16.06014167 20.19800121
H 18.62589792 23.59857922 20.04706361
H 19.86992394 22.85362129 19.59986207
H 20.03037006 16.97316067 18.21911383
H 18.33975675 17.10022496 17.85213353
H 21.01420354 21.70372499 18.15459072
H 22.10975353 22.36181832 19.02712538
H 16.88696658 17.42840715 20.62802094
H 16.41361217 18.26997897 19.49527422
H 20.72816572 19.45330016 17.50530429
H 19.58360810 20.06094449 18.57884295
H 20.08632775 17.29326840 21.41915493
H 20.04791769 18.75273385 20.79465078
H 19.01728939 21.10843038 20.43140788
H 18.16419502 19.71710976 20.20272349
H 18.33744286 19.08285824 17.02851624
O 17.54275515 18.47795351 16.91723904
O 21.57976257 17.80870384 18.65290798
O 18.38718506 16.17548858 21.20211217
O 19.08737179 22.78627730 20.22882365
O 19.09419707 16.57099264 18.28858217
O 21.29317249 22.58023444 18.47914340
O 16.65989504 18.33354316 20.41467073
O 19.87497370 19.96249127 17.59125084
O 20.71025636 18.05721082 21.12156640
O 19.07696903 20.14531266 20.07709421
30
i = 0, time = 0.0, E = 0.0;
H 17.40056358 17.13601288 17.62586766
H 20.29895131 18.67405661 18.27048223
H 19.57504407 19.24494062 19.45781621
H 20.40337820 16.17136057 19.90816138
H 19.93211106 15.49111641 21.13252311
H 20.90941347 22.65690468 20.08985067
H 19.97284075 23.89888973 20.35126205
H 21.18793739 16.51569499 17.21761364
H 19.52888666 17.04614899 17.24924653
H 21.45548992 20.65985012 21.01833978
H 21.47341585 20.55351905 19.54066595
H 16.57463494 15.71278853 20.30954353
H 17.64229577 15.87021711 19.21446120
H 18.55148021 20.46626721 17.55197396
H 17.17973602 21.18031914 17.36853246
H 19.93677947 18.12724233 21.26608839
H 18.77331654 19.06446270 21.80595542
H 18.43873369 22.37632453 19.59064169
H 17.05447661 22.95712962 19.56309989
H 17.84684019 18.55395234 16.99834907
O 18.07645371 17.59456870 17.17704786
O 20.07620266 19.56346684 18.65109085
O 20.56246474 16.15116601 20.84805975
O 19.93287177 22.94140028 20.15213405
O 20.34910989 16.67257539 17.74932431
O 22.03491677 20.85268043 20.28288595
O 17.50553248 15.43610418 20.08619224
O 17.73724868 20.43356326 16.99420936
O 19.72803091 19.05225095 21.51087903
O 17.49532060 22.10927543 19.47917166
30
i = 0, time = 0.0, E = 0.0;
H 17.73786735 17.36150848 18.24379929
H 22.10732082 17.71287706 18.89023315
H 22.57623510 18.46420612 20.22836435
H 19.60226071 16.43731135 20.62449901
H 18.57934051 16.15906894 21.82799633
H 19.99935266 22.55424611 20.25507027
H 19.12136739 23.90957513 20.46051610
H 19.68643175 16.43601433 18.31392039
H 21.00862726 15.55652980 18.42475357
H 21.41584940 20.27542778 19.70279983
H 20.10752143 20.44502111 20.68924572
H 16.23361655 19.33963083 18.83476917
H 15.36288551 18.11777486 19.38337486
H 20.34940250 20.03019404 15.82660281
H 20.46267492 19.33376229 17.18596396
H 18.97727426 18.75676486 21.72042672
H 17.90954207 19.56537898 20.84867200
H 18.10405041 21.56787741 19.10634803
H 17.60862348 21.25509197 17.66142697
H 18.21442882 17.35899681 16.76048608
O 18.15225076 16.79598480 17.53263231
O 22.45598874 18.57111793 19.27687938
O 19.36084734 16.69590024 21.57996352
O 19.33875801 23.18501850 19.80309034
O 20.57435225 16.38345301 18.76623302
O 20.95641290 20.87013354 20.30107614
O 16.27002951 18.52304280 19.38746460
O 20.07029790 19.28688179 16.29918772
O 18.71053326 19.66907556 21.43840441
O 17.54389166 20.93480632 18.58016172
30
i = 0, time = 0.0, E = 0.0;
H 19.16964522 16.74187410 18.63223808
H 22.29268960 19.19829985 21.36374596
H 20.79889953 19.09860962 21.28364969
H 17.27113398 17.85496138 20.51101385
H 17.13750918 17.03293531 21.86187967
H 19.75811127 21.92310622 17.18603720
H 18.97825795 23.29018464 17.28306250
H 19.40263683 16.21571035 20.57541361
H 20.92511388 16.39146465 20.17518510
H 21.08636251 20.83807532 15.48061506
H 20.47693444 20.11230430 16.72932440
H 17.53594415 18.06101729 18.75258344
H 15.92398062 18.47431520 18.83356379
H 21.40334479 19.02650828 18.68645060
H 20.09613026 19.84698160 18.82429075
H 18.81128875 18.67377886 22.01604651
H 18.93067456 20.13781981 21.29133608
H 18.73951759 21.36558399 19.12308368
H 17.96492856 20.00289339 19.26312181
H 19.42977512 18.01963231 17.84978038
O 18.65043779 17.37808764 18.04231604
O 21.64044519 18.72197638 20.85566610
O 17.82854279 17.32369537 21.22527182
O 19.42512800 22.60453922 17.86797135
O 20.08207764 15.97471689 19.85876695
O 20.25278042 20.69826299 15.94231554
O 16.83570076 18.69541162 19.25406096
O 20.62896228 19.35388217 18.15265086
O 19.33025143 19.50740306 22.04570134
O 18.69803522 20.55229828 19.67418067
30
i = 0, time = 0.0, E = 0.0;
H 20.85134398 17.06258073 15.59767805
H 21.86411592 17.57641437 21.73282553
H 20.62081757 18.40880376 22.21801047
H 17.28269751 16.52534724 20.96183861
H 18.89634298 16.47854597 20.85768759
H 18.93278113 22.60006859 18.26648713
H 20.07155420 21.47787573 18.00515970
H 18.07531805 16.57572667 18.24810137
H 18.48557464 17.04887563 16.78004820
H 22.62412205 21.55051239 18.92604705
H 21.61797718 20.40159902 18.34834383
H 17.75199956 18.59115114 18.13405820
H 17.94975667 20.25024912 17.94310338
H 20.45829810 18.49406415 19.52722851
H 19.45766760 19.30499726 18.64909380
H 18.26778240 19.15711680 23.28023485
H 19.02023298 19.99637016 22.23858429
H 18.28007135 21.18485703 20.41921791
H 17.20779863 20.18635079 20.17017388
H 20.42823725 18.06248360 16.70974505
O 20.08725429 17.49433239 15.99431377
O 21.04572426 18.07824597 21.43272100
O 18.11045741 16.61167605 20.37215620
O 19.15009380 21.68182922 18.15174187
O 17.86310188 17.24405818 17.56062975
O 22.14479211 21.21839269 18.09629731
O 17.57525067 19.54901870 18.54656743
O 20.36173089 18.92917991 18.58213445
O 19.18018205 19.50942664 23.09056258
O 17.72703471 20.58055943 21.01042374
30
i = 0, time = 0.0, E = 0.0;
H 18.53275287 19.59019141 15.85614792
H 22.42963791 16.94786365 19.16563865
H 21.01494983 17.37614061 19.90057475
H 17.28042898 17.09004036 19.76459462
H 18.03253229 16.14476581 18.81389290
H 19.77467576 22.74589992 20.50952123
H 18.77132013 23.29408397 21.56218655
H 19.13209544 17.51625290 17.05463261
H 20.11895601 16.87875970 17.92772672
H 22.03814437 22.03461703 20.63024722
H 21.29033020 21.44817052 19.28107917
H 16.15139435 18.65860045 18.63329899
H 17.46789989 19.07771445 17.90324556
H 21.25641180 19.18218715 18.76873540
H 19.89170966 19.75751154 19.30494040
H 19.06228031 16.77232827 20.63476954
H 19.50344624 18.20678812 20.85515835
H 18.86911808 20.71151410 20.97368479
H 17.70927615 19.60414399 20.53725853
H 19.34081149 19.66972237 17.25607163
O 18.69907991 19.16946385 16.70673668
O 21.59738115 17.47073774 19.02723474
O 17.53506977 16.13717435 19.71709881
O 18.84168602 22.81282612 20.76374132
O 19.20902148 16.77368172 17.67061902
O 21.40972240 22.28388903 19.87407828
O 16.95313862 19.17164782 18.73490448
O 20.56337133 19.91499393 18.59151442
O 19.87275474 17.29348790 20.86194076
O 18.59440661 19.75709147 20.99554265
30
i = 0, time = 0.0, E = 0.0;
H 18.68340847 17.15427813 16.05526295
H 22.46416657 19.71537631 19.65394074
H 22.77335132 18.23455026 19.67041822
H 19.37991037 15.79074983 21.43696083
H 18.63185190 16.53445769 20.16550554
H 19.24447981 21.60420653 19.12321249
H 19.60890761 23.10082123 18.56244573
H 17.65044906 16.54151484 18.36303657
H 16.80705741 17.35498941 19.46530383
H 22.80217255 21.65279968 19.28789650
H 21.37831903 21.60571533 19.85754787
H 17.01920863 18.28804336 17.50169817
H 15.58721153 18.89903750 17.92983401
H 20.85060468 18.93182557 18.45068243
H 19.57926383 19.92514831 18.24543440
H 19.49407208 18.23650514 21.61267119
H 20.13091151 19.40048110 22.31689229
H 18.22567965 20.35505795 20.78609112
H 17.56758738 19.97656881 19.47904449
H 19.05176849 18.06561797 17.20761787
O 18.31796371 17.47692633 16.92025380
O 22.48516871 18.95061695 19.03648149
O 19.20397979 16.65267197 20.95758161
O 19.94972956 22.16041247 18.63641154
O 17.28276275 16.50764284 19.31564810
O 22.31914849 21.26857447 20.02105377
O 16.51549122 18.81642979 18.21704374
O 19.95191815 19.06530899 18.07699194
O 19.36452509 19.19062576 21.85806756
O 17.93142823 20.78018138 19.91407852
30
i = 0, time = 0.0, E = 0.0;
H 16.99419391 17.80102033 17.12422819
H 20.95502418 18.27391321 20.32839804
H 21.94210492 18.99208856 19.28682839
H 17.79814675 16.93728846 20.91588499
H 18.30910450 15.92064078 19.82381913
H 20.81895500 22.78904315 20.82688762
H 20.90520176 22.26177179 19.35707189
H 20.35732206 16.82271729 18.98242906
H 19.95857196 16.16535598 17.55737009
H 21.79369731 21.78359285 17.29521995
H 20.62365290 20.95269194 17.66433618
H 17.21623044 19.57870225 20.15290759
H 17.66015655 19.08470464 21.51981556
H 19.52108815 19.53527615 18.19822420
H 18.49817550 20.74871915 18.26154040
H 19.63522519 16.58504684 21.39230928
H 21.02940831 16.56876792 22.14178455
H 18.70875913 22.22939962 20.10129729
H 17.34483615 22.43159305 19.24073600
H 18.00612148 18.71955680 16.98431656
O 17.70446995 17.93205283 16.45850917
O 21.04288753 18.67869854 19.42690795
O 18.22256618 16.06929269 20.84087351
O 20.33422474 22.83427024 20.00793437
O 19.71787299 16.19824497 18.54345113
O 21.52130986 21.21516154 18.03884213
O 17.28972857 18.73452274 20.66610033
O 19.02808020 20.19001071 17.67235206
O 20.48524630 17.09499899 21.50592281
O 17.90355244 21.74483540 19.66772462
30
i = 0, time = 0.0, E = 0.0;
H 18.94988345 18.12498648 16.17568649
H 21.15025292 15.74727137 19.42146783
H 20.38006811 17.11996983 19.99230556
H 16.43255503 16.98435404 21.41081016
H 17.55101489 16.45760646 20.31576317
H 21.36231862 22.73493380 20.94959155
H 21.24327908 23.02371215 19.50217912
H 17.78390319 16.31353833 18.30777252
H 19.07112807 15.83071592 19.01295025
H 21.92239873 22.93199229 17.27426459
H 21.71801906 21.54186022 17.97645447
H 16.27736510 18.95948738 19.72994730
H 17.12211927 18.60882184 18.58458921
H 21.01623648 19.01968226 18.73503320
H 19.82964037 20.11809044 19.10115760
H 18.65477258 17.83130303 21.12106451
H 19.72146462 18.81050414 21.11972022
H 18.78112288 21.47781591 19.80284562
H 17.74022785 20.24966819 19.82955409
H 19.44515973 18.58792890 17.47120752
O 18.68569160 18.16549471 17.05569391
O 20.75198489 16.64261014 19.12094816
O 17.06955789 17.26876703 20.72901160
O 20.79349832 23.16969747 20.34131386
O 18.05647930 15.60917550 18.88889395
O 22.32958585 22.31526276 17.90488221
O 16.73420980 19.41955569 19.00002288
O 20.60362642 19.92403206 18.45535252
O 19.68301157 17.86231343 21.24211850
O 18.66345260 20.54877631 20.17361120
30
i = 0, time = 0.0, E = 0.0;
H 19.08485011 17.56349735 16.01558779
H 22.60570743 18.53631179 20.86267730
H 20.96211319 18.72346913 20.82005499
H 18.17191842 16.32673483 20.27824839
H 18.18892677 17.59167266 21.36457111
H 19.86423697 22.82518533 18.60781149
H 18.49560316 23.42472800 18.23265716
H 19.38353497 16.06626535 18.36408927
H 20.15008263 16.86055483 19.41522277
H 21.54314476 21.42565248 17.64538669
H 21.52129475 21.25640751 19.19905638
H 16.95050817 17.72311314 19.39726046
H 17.30716594 18.19751459 17.87229003
H 21.01511214 19.06363716 18.83682444
H 19.57380603 19.74123228 18.65240906
H 18.95754307 19.80936269 20.95418614
H 19.31449786 19.93063285 22.43171961
H 18.26813179 21.32334492 19.37522387