63
i = 0, time = 0.0, E = 0.0;
H 17.28008721 16.42842360 17.14513287
H 22.23041179 21.64504444 15.93367710
H 22.49091684 21.31195264 17.47771374
H 21.64625768 15.40638126 21.06606789
H 20.22422677 16.17934830 20.60642569
H 17.93582975 22.28258827 22.70100057
H 18.12867566 23.29702990 21.54774497
H 18.73792226 16.42523308 18.95606902
H 18.21172584 17.00944229 20.28826185
H 20.04672326 24.98080234 21.31463423
H 20.20600332 23.72690306 20.50026357
H 21.03895285 21.33831422 20.47960439
H 21.55268585 22.55476129 21.30781277
H 19.68985481 18.13585441 23.12339829
H 19.33201977 19.66006338 23.20814214
H 20.13924483 21.43500319 17.45920754
H 19.95636554 21.96977418 18.91042857
H 25.12872756 19.16020683 20.38044391
H 23.67331997 18.71158288 19.85900374
H 21.29788245 16.84192414 22.96876735
H 21.39252022 16.68021774 24.47064357
H 14.93170169 20.65824176 20.28423959
H 15.94160645 21.75238016 20.76582078
H 24.04142316 21.23019598 19.33218285
H 23.01066019 22.41007519 19.24490118
H 20.19741012 19.37724739 21.43327606
H 21.36290202 19.23253365 20.30024183
H 22.06264620 17.08552555 20.05373993
H 22.05144922 18.08276863 18.68649872
H 20.35466121 21.86216895 23.59826825
H 19.93370514 21.18446316 24.95736398
H 22.89639899 22.47265091 23.98078871
H 22.77493449 21.09704236 23.12642322
H 21.48616982 19.30234791 16.82998871
H 20.33515486 18.26004146 17.05905744
H 17.28985008 18.94769226 20.17309112
H 17.60309075 18.57451406 21.69874856
H 22.10172824 19.60431940 22.22321438
H 22.49968962 18.90477975 23.50457382
H 18.41411265 20.43836736 18.40519249
H 17.56192571 17.96479622 17.66614183
H 17.01663936 20.41644721 18.90157737
O 18.01372405 16.99170606 17.47722232
O 21.94492269 21.04681621 16.64123354
O 21.15121745 16.25617646 21.15062904
O 17.54076963 22.61271631 21.88609511
O 18.79161454 16.22119883 19.91648995
O 19.57322144 24.44806512 20.64164378
O 21.19954400 22.32997356 20.34869254
O 19.10319359 18.81852156 22.70792807
O 19.45449091 21.77894025 18.11207370
O 24.41484488 19.45287481 19.75937702
O 21.25370683 17.36232333 23.81876919
O 15.66614961 21.22810713 19.99005068
O 23.54267761 21.84906483 18.68791061
O 20.96809574 19.83465372 21.00514260
O 22.37266290 17.94537790 19.63677826
O 19.59504962 21.41460865 24.01415477
O 22.67072172 22.16106517 23.11054502
O 21.16930429 18.56464930 17.39907054
O 16.94143506 18.36917484 20.93967824
O 22.86682250 19.55954899 22.84070914
O 17.69979645 19.77304460 18.54231564
63
i = 0, time = 0.0, E = 0.0;
H 17.46608311 19.30843245 18.12314215
H 18.93318808 19.37323403 16.41319313
H 20.50864828 19.68376307 16.21279796
H 20.72290608 14.95119084 21.14380644
H 19.71670556 16.11341334 21.73764914
H 19.55268216 23.76455670 21.99156049
H 19.98320654 23.06417724 20.72124681
H 17.82780986 16.93177238 22.73796154
H 19.06127235 17.72341062 23.39946587
H 20.09515484 23.98695302 19.17896050
H 20.91732049 22.77746289 18.85502094
H 20.52279032 20.71137402 20.52923480
H 21.94021690 21.34981641 20.72537301
H 19.03612132 18.99325081 21.18558261
H 18.26165092 20.23699672 20.61467603
H 19.46164867 22.67487332 17.54784162
H 19.26604947 21.52804255 16.39982390
H 24.55251082 19.04624777 19.59144310
H 24.12979146 17.86946598 18.62065131
H 22.05506903 15.93437592 23.96948936
H 21.69851897 16.42125990 22.53715218
H 17.20664036 23.59228647 18.71928301
H 17.82090943 23.34905403 20.14379376
H 22.81130799 20.08976578 17.72077479
H 21.53387197 20.67544266 18.42229746
H 21.31630820 18.67702528 20.77194995
H 22.54772276 19.05006624 20.02530813
H 22.40909883 16.16161961 19.92935123
H 22.36736814 16.51382744 18.45084327
H 19.82979597 22.54914257 23.67811032
H 20.21856207 23.97083184 24.15065252
H 21.47201111 20.50318594 24.09165390
H 21.42308781 21.65442349 25.14344353
H 20.17991893 17.18457975 19.59580640
H 19.37779710 18.23105053 18.90083078
H 19.52669592 19.87581164 24.56414269
H 18.14650933 19.30094978 24.91114474
H 22.87256697 19.64652565 22.57112414
H 22.86259485 18.59567050 23.67015973
H 17.99451576 21.25586575 18.05798505
H 17.12982911 18.03283878 17.29708408
H 17.11670668 21.56373115 19.20980000
O 17.89531683 18.54714267 17.63172620
O 19.61560267 19.80354357 15.78628913
O 20.51328156 15.92832724 21.11386546
O 19.38998761 23.85270537 21.04908880
O 18.84150435 17.00779081 22.66737836
O 20.45753490 23.50748075 18.39905724
O 21.11219492 21.37398758 20.20201924
O 19.03883948 19.98297053 21.17763395
O 18.82272466 22.06943684 17.07424240
O 24.16409261 18.84056739 18.72654852
O 22.20358560 16.67385976 23.35740153
O 17.00047293 23.23897818 19.60851835
O 21.95584181 20.53846884 17.53164595
O 22.29616248 18.80567730 20.95171846
O 22.90344831 16.04805564 19.11285654
O 19.53787695 23.47699347 23.61081777
O 20.86475314 21.01799011 24.69284050
O 20.29755883 18.03031158 19.13194611
O 18.99809870 19.01648050 24.49370366
O 22.77403016 19.59157409 23.57692713
O 17.39817435 20.73693603 18.70937730
63
i = 0, time = 0.0, E = 0.0;
H 16.46913894 18.50428529 17.57437425
H 21.33378102 21.11584650 15.23788020
H 21.90172628 20.89804625 16.69806796
H 19.43724909 15.20789892 21.84749735
H 19.78133095 16.74515290 21.23560035
H 19.45055813 22.17820971 23.44783630
H 19.69116722 21.76085409 21.96862254
H 18.33659124 18.05787173 20.20548373
H 18.26939537 18.77160982 21.57720466
H 19.17852313 23.58443436 20.37639772
H 20.44934700 23.29313916 19.71929190
H 21.51753669 21.66149590 20.51541086
H 22.83185399 22.35238755 20.72948222
H 21.48527684 19.19926959 23.86263467
H 21.78780885 20.67055198 23.77006426
H 19.44711002 22.01853423 16.78749040
H 19.07122547 22.76847685 18.01797641
H 24.32077081 17.11089777 19.12832505
H 22.85887185 17.28774979 18.61039463
H 21.37526673 16.07252688 22.68879196
H 22.63047441 16.03383824 23.63991320
H 16.36574947 22.64842584 21.38614818
H 17.84306027 22.07671210 21.92050547
H 23.51063270 19.61201541 18.53961199
H 23.15106469 21.12733925 18.82202704
H 19.53787175 20.21345770 20.16349866
H 20.69360367 19.63374987 21.07138406
H 20.87205219 16.17985637 18.15367075
H 20.76337845 17.43954154 17.38513346
H 19.95075538 20.38648781 25.01243048
H 18.47652805 20.40139791 25.56161609
H 24.20648763 21.52084226 23.11880392
H 23.41118688 20.57371293 22.15529932
H 19.99085395 19.40452761 16.58492302
H 18.82986636 18.32842862 16.97272852
H 17.11076911 20.44528593 22.36555386
H 18.07703500 20.16792073 23.57055002
H 22.93583990 18.61759503 20.72859197
H 22.50287302 18.13438061 22.18485251
H 18.33209367 21.13332205 18.30011962
H 17.41327869 19.28947785 18.57317045
H 17.57038838 21.01611527 19.72354347
O 17.22592437 18.35883272 18.17618984
O 21.09968568 21.16835776 16.20613036
O 20.17267885 15.82801027 21.55969946
O 19.13658730 22.33676327 22.52550660
O 18.74371903 18.07651670 21.08063856
O 19.56789572 23.59009997 19.50088313
O 22.13707535 22.30974964 20.02662727
O 21.30013257 20.05161701 24.29844629
O 18.61883991 22.30804876 17.23791306
O 23.61932295 17.79730810 19.14138024
O 22.01720476 16.66415781 23.25672058
O 16.96623986 21.82973729 21.26513799
O 23.13739219 20.39261951 18.08030211
O 20.28989267 20.47020065 20.78200672
O 21.46646362 16.81908053 17.76707415
O 19.08545113 20.95252434 25.04449368
O 23.35854381 21.46072214 22.62337117
O 19.69918636 18.45941718 16.55496841
O 17.51572251 19.68489177 22.92386200
O 22.75184672 18.97381146 21.64479963
O 18.08954818 20.51107646 19.05616918
63
i = 0, time = 0.0, E = 0.0;
H 18.40661701 15.78085438 18.04734717
H 20.55843019 20.40985363 16.21665633
H 22.07175708 20.16927360 16.51017212
H 20.20063025 14.91976229 20.43380256
H 19.53862114 16.34053661 20.90635486
H 18.31818290 23.98817938 21.82935318
H 17.85648231 25.28109343 21.07445657
H 17.87545037 17.42180081 21.56202005
H 18.77075701 18.10212648 20.35396328
H 20.51827116 22.79758315 18.97503625
H 19.17249795 23.64514202 18.89394105
H 20.76712499 20.79520191 20.46690248
H 21.71026792 21.89014382 21.09715111
H 20.90460327 18.71716774 24.19495227
H 20.64397407 19.89695431 23.18502813
H 18.98512941 22.15089630 15.73282219
H 19.59439393 22.30585504 17.04560768
H 23.67714145 17.97708942 20.73104505
H 24.76390615 19.17410793 20.41607906
H 20.92713463 16.31109500 23.19519684
H 20.51402145 16.43562277 24.62873590
H 16.63499329 23.18093865 20.40435574
H 15.24684407 22.56799091 20.82889062
H 22.47728225 21.11192231 18.74487665
H 22.41245792 22.20947335 17.65869283
H 19.15421846 20.06186615 19.39310898
H 20.34017592 18.96890723 19.31207599
H 21.94865952 16.33584379 20.78538560
H 22.11250902 17.22809632 19.47135923
H 19.54255942 24.35306719 24.19739946
H 20.51257536 23.36399042 23.36357066
H 22.91966494 21.41040781 23.18115778
H 22.91745699 22.91284221 23.11549179
H 20.36119610 17.15035259 17.88529564
H 21.29497195 18.35773105 17.29494296
H 18.80693092 18.34493065 23.38743726
H 17.36286237 18.13932657 24.08112997
H 23.69394850 19.14136441 23.88753067
H 23.87994898 19.54651427 22.36637348
H 18.10172907 20.97084732 17.82924112
H 18.11409001 16.95613217 18.91168307
H 16.96962619 21.22477931 18.98611622
O 18.50107857 16.74530171 18.00628470
O 21.25695302 19.72751326 16.17959966
O 20.21489930 15.63659832 21.12807326
O 17.93403511 24.33272008 20.93696546
O 18.25152067 17.30039364 20.62544557
O 19.89017260 23.22480708 18.38525386
O 21.33288449 21.59791963 20.23474908
O 20.23428135 19.42670813 23.91605636
O 19.29582791 21.55398015 16.46207436
O 24.13471306 18.84239774 21.09703864
O 21.16786893 16.83750153 23.99905925
O 15.99787009 22.42234930 20.19620907
O 22.90495176 21.34339120 17.80834198
O 19.72536596 19.44372381 19.94464108
O 22.62631724 16.93877859 20.29102156
O 19.74849766 24.04697768 23.28071077
O 22.33278950 22.18168768 22.87515096
O 21.26658216 17.58898434 18.00582808
O 17.91213547 17.88360523 23.30167878
O 23.64914053 19.93256234 23.31320562
O 17.78466580 20.75817291 18.72399008
63
i = 0, time = 0.0, E = 0.0;
H 17.29427565 17.88097639 17.86890805
H 22.33404092 21.00553806 15.76467771
H 22.76299250 20.10708013 17.03825752
H 20.68657591 15.63376798 20.45101071
H 19.23099865 16.28316489 20.91300270
H 18.09267004 22.83783598 23.14643962
H 17.48187102 23.54207151 21.99529398
H 17.78980014 16.74805010 20.06138762
H 17.36658536 16.92032445 21.60279731
H 20.61630634 24.88489919 18.17677334
H 20.48608651 24.32280681 19.61102638
H 23.33231146 21.06627269 19.80236444
H 22.02744424 20.66685611 20.38579715
H 20.71156579 19.90518266 23.53892012
H 19.97119001 20.28669688 22.35599501
H 20.55184162 21.01307777 17.09039831
H 20.12940374 22.29363663 17.93983246
H 25.09845959 17.34488215 19.42625681
H 23.59241671 17.63207280 19.59741411
H 20.88431466 16.34810272 22.74158405
H 21.20425676 16.52102872 24.32631497
H 16.68777617 19.95505821 21.69059326
H 16.38991464 21.42874688 21.95893373
H 24.28768133 19.34232054 18.84819804
H 24.76082102 20.73255925 18.14751991
H 20.17899606 20.45911788 19.13646823
H 20.50428641 19.02602462 19.73647359
H 21.42597360 17.09810513 19.58167557
H 21.98939967 17.42953060 18.18018982
H 21.97630040 23.13831197 21.20883557
H 21.10493852 23.75573681 22.28912120
H 20.14326803 22.25842798 23.90077110
H 19.69656293 23.61667753 24.65157817
H 19.98774884 17.75249768 17.33189661
H 21.12723928 18.64754583 16.67913224
H 18.50445599 18.90224552 23.26070848
H 17.16655289 18.85236376 23.96169707
H 23.05807023 19.97837045 22.79204027
H 22.53018544 18.69369435 23.43816297
H 18.19397703 21.13200944 18.25791935
H 17.74217405 19.09644198 18.55832529
H 17.04754242 20.82341672 19.30445313
O 18.09667717 18.04225493 18.39483664
O 22.02415045 20.30701104 16.39725080
O 20.27256467 16.46512352 20.77715758
O 17.23665178 22.97104998 22.80000271
O 17.70897595 16.27925324 20.95733573
O 20.07297589 24.23865892 18.67230287
O 22.75608368 21.28938736 20.60867335
O 19.83631829 20.34835294 23.34890384
O 19.91428189 21.34289471 17.80400593
O 24.56400986 18.05652085 19.69534136
O 20.85436246 16.96150278 23.51828196
O 16.18736426 20.71946760 21.33897844
O 23.95461412 20.20193167 18.41945576
O 20.41120630 19.99455029 19.98170754
O 22.29668440 17.11364402 19.07196051
O 21.31126650 23.87504119 21.29299224
O 19.90618760 23.20703644 23.77423795
O 20.92373967 17.70831813 17.00565811
O 17.56466349 18.51782174 23.13242731
O 22.55948839 19.62667524 23.52010144
O 17.35940433 20.66868894 18.44129766
63
i = 0, time = 0.0, E = 0.0;
H 17.06757107 18.41195050 18.78884769
H 19.89822050 21.07548893 14.84005250
H 20.40362711 21.23044328 16.35379921
H 19.41827296 16.53635981 21.30993616
H 20.45234280 16.86861431 22.42929034
H 17.72370261 23.94064967 20.74526739
H 16.76529346 24.59833224 21.71151102
H 17.68316443 16.87204358 20.05319187
H 17.29397690 16.69688828 21.70252837
H 23.04892057 23.50948497 18.89579409
H 21.86910829 22.98573772 19.86197787
H 20.67352667 21.36895475 21.29459942
H 21.86699969 22.32742445 21.89421989
H 19.80695591 20.52174599 24.57057715
H 19.68487943 20.41026109 22.89310991
H 19.16552406 22.57726644 18.81435970
H 20.08947608 21.36904694 18.57183213
H 23.40757431 18.28196807 19.81712972
H 24.29270172 18.66914501 18.60250260
H 22.18555333 16.12740142 22.19080773
H 23.36123900 15.53435649 23.03645466
H 15.89687356 20.84593370 21.64485413
H 15.90900191 22.11760910 20.79505490
H 22.08354521 20.56145797 17.75828729
H 21.84965662 19.99590094 19.16080151
H 18.83994265 20.11139803 20.57351454
H 20.03346395 19.24214050 20.56276623
H 20.90363729 17.27499642 20.09826308
H 20.92181159 17.85312981 18.61008448
H 19.44770473 24.99444551 20.07909263
H 19.86338402 23.55513674 20.64098222
H 23.84366089 21.27293651 23.45367084
H 22.86436642 20.45757103 22.53942771
H 20.16080205 18.77728099 16.27188770
H 19.15530999 17.99334384 17.19386131
H 20.55785172 18.43866548 23.84941001
H 21.52009836 17.16219626 23.94696528
H 23.88887747 17.93131275 22.42062759
H 24.86335963 18.99353268 21.86283430
H 18.10799084 20.49232870 18.84594740
H 16.33013118 17.24140632 17.99111112
H 16.72876766 20.41970596 19.82025761
O 17.11269787 17.43598501 18.56841662
O 20.53367295 20.69916366 15.52492282
O 20.45136188 16.50272228 21.46378553
O 16.84729151 23.76224494 21.18964127
O 17.93398278 16.93781766 21.03976898
O 22.28607367 23.77459113 19.47582326
O 20.95353587 22.31091478 21.36482569
O 20.30160084 20.22664050 23.70714027
O 19.10295543 21.69018911 18.32197631
O 24.36198756 18.58519555 19.58031253
O 22.94969017 16.36389696 22.78416665
O 15.64624468 21.17208536 20.79532706
O 21.92588516 20.82361102 18.70570527
O 19.69124634 19.96723182 21.16396142
O 21.23955514 18.00931148 19.51158203
O 19.27453228 23.99513808 19.98271751
O 23.04793590 21.38183497 22.86463231
O 20.09917502 18.14460331 17.08204999
O 20.56652556 17.39187016 23.74896562
O 24.32508100 18.81820574 22.63520427
O 17.55254957 19.92413556 19.45783948
63
i = 0, time = 0.0, E = 0.0;
H 18.93670973 17.79703927 17.73866020
H 20.91354812 19.71386172 16.74411825
H 21.64275055 20.89402645 17.19666509
H 19.93551623 16.43980907 22.10189698
H 19.09362724 16.56769833 20.83309632
H 17.57707451 23.27014300 22.31829878
H 18.29368657 22.75276492 21.05405143
H 17.49211008 17.33875181 19.04159846
H 17.29772810 17.73838764 20.52941947
H 21.07358118 22.81883379 20.12208556
H 22.00861735 21.79567518 19.38724034
H 20.42273060 21.03084830 22.45367037
H 21.23319108 20.36417114 23.58311385
H 20.12095941 18.12323245 24.24119783
H 19.10547899 19.11788381 25.00651886
H 20.18111802 23.52806182 18.18209113
H 19.48218586 24.25248759 16.98357259
H 20.56267356 19.67089561 20.53819300
H 20.73464229 18.16018262 20.83183516
H 21.73793925 16.39079185 24.03105092
H 22.30455538 17.66988255 23.34297475
H 17.29030582 23.72140963 18.20443699
H 16.53571056 23.12135900 19.39157838
H 22.44721809 19.82192469 19.34746191
H 23.70973631 20.57011708 19.49368883
H 19.05733012 20.85088957 19.69791159
H 18.58350369 20.13510250 21.09089513
H 24.82619920 15.54385700 19.22618457
H 24.57165179 16.98055231 19.52206846
H 19.09372352 21.75498574 24.18872617
H 18.43450486 22.93150724 25.04226551
H 24.05318194 20.03315750 21.77581771
H 24.89000220 21.41808392 21.62222958
H 21.61064439 17.73732689 18.87859048
H 22.48613878 17.97537868 17.62742441
H 18.07474717 18.84667398 22.82930460
H 16.70611821 19.27439272 22.23999494
H 24.25528213 17.50032485 21.75256527
H 22.90020605 18.16643099 21.08598484
H 19.14966739 21.37733669 17.61462718
H 18.14316378 19.09610519 17.36812256
H 17.67809029 21.80450840 18.08490898
O 18.06048103 18.14258128 17.46085910
O 20.84594399 20.68440424 16.65949430
O 20.02725347 16.64899601 21.19222758
O 17.52069193 23.21394331 21.31982239
O 17.48153876 16.96351142 19.98042713
O 21.47698658 22.64069364 19.24545419
O 20.88231023 21.19323084 23.30637953
O 19.35132966 18.77395386 24.11184165
O 19.34849784 23.95689433 17.90604410
O 21.32193170 19.00183835 20.49287393
O 21.61781417 17.38109818 23.97931987
O 16.62741938 23.02380279 18.38564102
O 23.07670374 20.40726602 18.78932385
O 19.31779967 20.70779505 20.67109418
O 25.28846715 16.33609127 19.68992184
O 18.25412100 22.27541623 24.30949791
O 24.17792910 20.88197495 21.21676729
O 21.72517424 17.47380217 17.94844519
O 17.62703163 19.08930993 21.98039920
O 23.51879318 18.20973519 21.86614867
O 18.35806717 21.00865192 18.08829425
63
i = 0, time = 0.0, E = 0.0;
H 18.80181233 17.79942640 17.76264957
H 20.85890506 21.21124351 16.91335867
H 22.24794397 21.04958800 17.47771612
H 20.57590262 14.76700052 20.78890212
H 19.77028452 16.02604228 20.59117001
H 17.64031385 23.47932417 21.63058991
H 16.47623371 24.54177990 21.62859412
H 17.98127540 16.68842382 19.64549444
H 17.85331528 16.74773528 21.17930490
H 20.89947429 22.88380135 19.59556237
H 21.84093524 23.61158858 18.88044363
H 20.74620921 20.93632030 21.02999389
H 22.02271468 21.67336458 21.87814631
H 20.14099081 19.42187972 24.22793688
H 19.85855786 19.32001339 22.64048435
H 19.30240697 22.48039866 16.36398373
H 19.68684247 22.74690149 17.86944926
H 24.81510495 18.65061316 20.11776816
H 23.28792631 18.93491295 20.12326163
H 21.41867558 16.66419312 22.65983252
H 21.06333075 17.69406524 23.63172603
H 16.10201436 22.64334100 20.17523127
H 15.66516204 22.40539910 18.67656792
H 24.03680316 21.00001431 19.24760491
H 22.95600368 21.57655981 20.01946292
H 19.15528916 20.10069835 20.66621448
H 20.57858345 19.06113999 20.61381739
H 21.59850663 17.11794083 20.03956919
H 21.52089273 18.22049330 18.89295410
H 20.24044671 22.78184974 21.88492090
H 19.39266370 24.09602868 22.36553458
H 23.61039107 21.64551832 23.86454909
H 23.25359385 20.22123919 23.09683339
H 21.03988896 17.80411515 16.61762826
H 21.14698022 19.32553402 17.01394402
H 18.41130439 18.18532697 22.90351274
H 17.63294064 18.37505202 21.67676056
H 24.07245116 18.88069599 22.12447203
H 23.31113716 18.13545578 23.40798676
H 18.42937260 20.63209325 18.74733995
H 17.52750259 18.53985882 18.45652534
H 17.16184518 21.00904612 19.50852692
O 17.88528187 17.64227965 18.11504166
O 21.67667275 20.70707376 16.79410743
O 20.77646089 15.70959542 20.78051838
O 16.73230601 23.67144268 21.24429801
O 18.25799565 16.17250084 20.47140081
O 20.88662086 23.52816911 18.88374304
O 21.39547059 21.79495491 21.05756952
O 19.80067526 18.83761281 23.52293643
O 19.40165977 22.07161336 17.23612519
O 24.19456159 19.30767927 20.43959208
O 21.82470882 17.21672144 23.31094128
O 15.89660962 21.93217624 19.50532805
O 23.29700892 21.55770051 19.04156734
O 19.95346933 19.69824904 21.15832003
O 21.66496529 18.10414653 19.86157166
O 19.32971986 23.17955679 22.07294162
O 22.99385763 21.21427963 23.18824612
O 20.60227748 18.42499089 17.26846751
O 17.60504647 17.77044476 22.46036286
O 23.88700159 18.91238245 23.07057982
O 17.87633845 20.24708408 19.47635905
63
i = 0, time = 0.0, E = 0.0;
H 16.69814219 16.56369453 18.39917211
H 21.25845761 19.60889266 17.75603557
H 21.72850022 20.98490541 17.20289437
H 20.93698564 16.39887307 22.15902234
H 19.59515047 16.85759225 21.42363588
H 18.76259945 23.57614611 21.66882811
H 18.94296044 23.49122561 20.14084296
H 17.47682362 17.25417889 20.99898573
H 18.17488780 18.55337043 21.36663247
H 19.46981715 24.26930199 18.55717065
H 20.60228719 23.33349484 19.16066584
H 20.96127048 21.49689738 20.41184871
H 22.14334443 22.13056988 21.14334934
H 21.06586766 20.55308239 23.17400003
H 19.82156751 20.28279959 22.07037391
H 19.42756265 20.73079988 17.21086223
H 18.84512858 22.01914312 17.73823591
H 24.91779458 17.95820783 19.45742935
H 23.50806005 18.05979567 19.53499910
H 22.00953423 17.28141041 23.62069639
H 23.12894503 16.16223515 23.93502719
H 17.20488512 22.18224690 20.73633876
H 15.97523803 21.69066746 21.50259559
H 22.88843235 21.83900531 19.04183032
H 23.90689765 20.79304082 18.47496744
H 18.57864911 20.21570364 20.07977621
H 20.03884278 19.44855846 19.84895482
H 20.71826246 17.41044266 19.98659993
H 20.58644214 17.83230977 18.56329626
H 19.69338873 22.27465527 23.32364549
H 18.88794406 23.42255991 24.08503771
H 22.80080953 21.80361969 23.69667025
H 23.15178295 20.81753754 22.58786336
H 18.93952319 17.28505324 17.53661575
H 19.69379005 18.07849424 16.45794939
H 19.45418683 17.54829577 23.45787877
H 20.33415522 18.65779081 23.53752474
H 24.14108430 19.18855356 21.31401632
H 24.09577574 18.79359617 22.87336186
H 17.23533684 20.25403160 18.17726716
H 17.09038083 18.11831490 18.75399737
H 16.46768624 20.34034943 19.69505205
O 17.42491097 17.20570851 18.65573927
O 21.04552023 20.28421473 17.03488792
O 20.47670533 16.39679472 21.23767801
O 18.28853113 23.57337467 20.82108981
O 18.02122899 17.65116815 21.72801368
O 19.75684335 23.32775391 18.53799570
O 21.78807085 22.07202308 20.24107598
O 20.12581783 20.20738656 23.04810957
O 18.49851990 21.16229767 17.32640556
O 24.26442329 18.63261276 19.65758369
O 22.90421154 16.94857839 23.38892393
O 16.71367389 21.35239974 21.01760009
O 23.44865017 21.57450041 18.23190215
O 19.55212566 20.26531096 20.27185617
O 20.91111701 18.21583455 19.44779400
O 19.38862959 23.25061883 23.26668366
O 22.47460893 21.53853253 22.80339467
O 19.82312627 17.28983628 17.06461593
O 20.32073131 17.67430738 23.79943513
O 24.21625644 19.53723452 22.26865555
O 16.66976317 19.76222773 18.84434654
63
i = 0, time = 0.0, E = 0.0;
H 16.19253172 17.98943940 18.45010968
H 21.75365582 20.16216035 16.11807548
H 22.62047815 20.80250028 17.42946394
H 19.28017757 15.51758203 22.39101622
H 19.49795135 16.71922885 21.40925300
H 17.11141490 22.65554498 22.09694265
H 15.81477543 23.25365787 22.60003497
H 17.80054930 18.52144312 20.13831858
H 18.25723143 19.20162176 21.54864910
H 20.76607610 24.58099794 20.69734982
H 21.13990882 23.13474368 20.60267275
H 21.72888221 20.76790080 20.30341181
H 22.92441395 21.49473343 20.97738469
H 20.88407052 18.53167257 23.52369994
H 21.14433243 19.65130913 22.53094094
H 20.32420779 21.43388103 18.07625289
H 19.67200499 22.52989133 18.87895143
H 24.08511430 18.71771124 19.01363067
H 23.93950294 17.18442200 18.97170434
H 21.45840680 16.44116767 22.41076644
H 22.52296915 16.14616372 23.59461077
H 13.83517344 21.29451436 20.03486218
H 15.14594582 21.97005821 20.63015595
H 24.79888913 21.05507476 18.55491022
H 23.41231640 21.53481597 19.18029177
H 20.11184313 19.13424375 20.70322805
H 21.38467663 18.53450826 19.88561614
H 21.22130437 16.52999938 19.13585882
H 20.93781933 17.27927526 17.84450752
H 19.10044625 23.28514414 24.00805571
H 19.58431809 23.25917187 22.42766304
H 23.00697590 20.91109540 22.76238872
H 23.83039741 19.80590911 22.11135033
H 18.69638540 18.49214148 17.63146519
H 20.11260503 19.14984959 17.32147681
H 19.19280739 19.91059648 23.44048193
H 18.50295816 21.20006053 22.96483956
H 24.67694014 18.16321504 21.14030555
H 23.76391424 17.58298354 22.25037548
H 17.58565261 21.27315703 18.52113731
H 16.98623230 19.24621631 18.12846480
H 15.94254564 21.05871633 18.73295478
O 17.08686789 18.31585494 18.54979538
O 21.74321257 20.37278863 17.11942559
O 19.89555159 15.85099532 21.67795761
O 16.21054465 22.88221418 21.77568550
O 18.39996157 18.40128995 20.95046937
O 20.39262307 23.70098479 20.86736466
O 22.13419016 21.68270031 20.33440174
O 20.96330638 19.46198575 23.44218816
O 19.51324046 21.59621045 18.72187353
O 24.55367860 17.89120264 19.28964930
O 22.10590430 16.87706385 23.10056831
O 14.72579736 21.53568133 19.80611063
O 23.90706775 21.26475006 18.37163951
O 21.14956776 19.22223779 20.56224190
O 21.75706139 17.08858145 18.47972434
O 18.78728214 23.24684420 23.07380139
O 23.73016063 20.80612526 22.11383551
O 19.59350442 18.34260498 17.19432553
O 18.30769582 20.23062686 23.09084258
O 24.46569390 18.31916419 22.10664377
O 16.72900971 20.79834117 18.17161343
63
i = 0, time = 0.0, E = 0.0;
H 18.83052326 18.30746531 17.32697836
H 21.15038206 21.04559003 17.26608312
H 22.55135843 20.41079304 17.85668676
H 20.60450278 16.44245252 18.99664605
H 19.43099775 16.47151650 20.00400231
H 18.18483006 23.88712218 22.39573953
H 17.84084882 24.28503873 20.90105749
H 17.55081988 17.08250678 19.29444275
H 17.04681219 17.67564233 20.69920241
H 20.93267046 24.67614673 19.75117994
H 20.92845593 23.13984589 20.42166959
H 21.28152814 21.05088749 20.84800041
H 21.81795743 21.88656964 22.10958688
H 19.69434295 19.08726063 23.17789656
H 19.76038247 19.45401280 21.57914192
H 19.69872236 22.99889760 16.88443324
H 19.80435449 23.22316218 18.47394765
H 25.24571591 19.21351435 20.50616280
H 24.79351385 17.71107915 20.46934934
H 20.93798416 16.45567906 21.22319644
H 21.14846360 15.85761051 22.60066708
H 15.04207761 22.42519653 21.68051981
H 16.61468279 22.46517723 21.44204628
H 22.97792067 21.49322184 19.75178574
H 23.19404851 20.02119365 19.77276342
H 19.41356253 19.97726959 19.46294995
H 20.22239329 18.61481391 19.50759348
H 23.18771311 17.26813747 18.81161527
H 23.59652107 15.91356011 19.46305644
H 18.90064408 21.64970319 23.46105217
H 17.74647194 22.23630904 24.36786880
H 22.62422015 20.40137776 23.44087351
H 22.95362590 21.87001995 24.30703524
H 21.10956246 17.47643661 16.80423493
H 21.45750455 18.76892645 17.43823364
H 17.71300130 19.46249683 21.96203229
H 16.35114714 20.16772092 21.52833857
H 23.74839303 18.83132302 22.16891880
H 22.34436173 18.19451335 22.43191635
H 18.08150396 21.57232522 19.03076835
H 17.59414877 18.88991335 17.85849975
H 17.57180898 20.19887580 19.76544284
O 17.91634618 18.02643449 17.46640343
O 21.90305380 20.37497239 17.15806668
O 20.34820428 16.04227739 19.84438585
O 17.44283161 23.92947163 21.73303666
O 17.35976810 16.84580310 20.23388491
O 20.38069544 23.84194640 19.91220261
O 21.72644381 21.87820142 21.08930687
O 19.28039300 19.56843779 22.44541476
O 19.73654907 22.53363661 17.72909940
O 25.08796828 18.43887246 21.08779757
O 21.47785680 16.63681473 22.07425977
O 15.84880209 21.84552573 21.60289665
O 23.52365545 20.82509247 19.26694132
O 20.26399548 19.55567326 19.89872655
O 23.96430417 16.74108976 19.08188593
O 18.54355263 22.53346240 23.84579671
O 22.35116699 21.31967100 23.80311825
O 21.15661518 17.84880168 17.73960289
O 16.92963198 19.35719877 21.32138194
O 22.84544167 19.03465301 22.64730505
O 18.00594672 20.57457770 18.94024231
63
i = 0, time = 0.0, E = 0.0;
H 16.12756225 17.66639162 17.90201180
H 22.73102737 20.69483150 17.97286111
H 21.31517639 20.89292010 18.49140670
H 20.19115121 14.95416149 21.80757090
H 19.48741234 16.25850747 21.10767850
H 18.74099263 22.70652561 21.31021578
H 19.14080882 23.03750423 19.79612813
H 17.92014780 16.55798730 19.52811736
H 17.79582835 17.74225499 20.63021443
H 21.26721132 24.73055829 19.28819145
H 21.32414474 23.30077072 19.63751390
H 21.23544157 21.20372531 20.51655488
H 21.86312867 22.01327098 21.78119702
H 19.35049240 20.75356978 22.87384733
H 19.78298252 19.65059417 21.84022767
H 20.23332233 21.47825997 16.71648501
H 19.02627265 22.40475481 17.03350483
H 24.92685801 18.12040821 21.23591484
H 23.50345401 18.15111681 20.41282512
H 20.32378074 18.05585492 23.91304245
H 20.76873030 16.77307265 23.38073035
H 15.96158415 21.39255898 19.15223149
H 17.05831970 21.64590028 20.18604626
H 23.76789686 21.66354393 19.99974391
H 24.18829436 20.17080692 19.74823629
H 19.57249611 19.52132208 19.47952101
H 20.88150187 18.96282302 20.11253421
H 21.52481589 16.72032471 20.28099508
H 21.51962353 17.36842441 18.84271669
H 20.29811064 22.70201993 23.53654390
H 18.81690792 22.52133426 24.13969974
H 22.52672415 21.75756978 23.82639187
H 22.58145956 23.16209896 24.42066236
H 20.45198933 17.71434045 16.66180220
H 21.38065443 18.85363892 17.26728830
H 17.53278660 19.08769974 22.11188673
H 16.74405138 19.75136629 20.95780187
H 23.53024894 19.78092363 22.81101143
H 22.53057967 19.36828218 23.82331167
H 18.47344121 20.48439879 17.76686290
H 17.67916048 17.96746100 17.92576316
H 17.64945737 20.01662686 19.10730015
O 17.02042562 17.22980000 17.72115842
O 21.80528381 20.66240408 17.66487271
O 20.33207466 15.91646541 21.61079803
O 18.41390840 22.71636546 20.36959731
O 18.26954556 16.90945282 20.35313632
O 20.96438220 23.91544829 18.94488649
O 21.86257781 21.92113277 20.80652006
O 19.48370430 19.77191059 22.82042334
O 19.24704869 21.49338261 16.75356077
O 24.18218988 18.70735697 20.88564731
O 21.01836676 17.37362173 24.11375568
O 16.29924828 21.03785051 20.04192310
O 23.96094213 21.06375664 19.26588403
O 20.27735416 19.81534201 20.14009258
O 21.85457129 17.51114712 19.75091575
O 19.30301432 22.51998654 23.28652697
O 22.24853627 22.70960988 23.63808125
O 21.26247141 17.90946259 17.19260759
O 16.93326743 18.80526598 21.36801553
O 23.09827675 20.14475837 23.64453015
O 18.25316311 19.64964611 18.41708308
63
i = 0, time = 0.0, E = 0.0;
H 16.62691065 17.30915112 17.30935352
H 22.50793302 19.80893266 17.34987571
H 22.71923580 19.42721650 15.83269126
H 20.86291587 16.27421248 22.01218314
H 20.14974398 15.25850355 22.94382334
H 19.49486866 23.28533491 20.06720097
H 19.24996721 23.43955146 21.68753928
H 17.42615425 17.33252334 20.29095040
H 17.60655526 18.30779172 21.49537775
H 20.75791883 24.26961042 18.24783192
H 21.30197218 23.12975585 19.08518121
H 21.57717431 21.03005929 20.12287357
H 22.47444454 22.13918625 20.77323082
H 20.00644353 19.65559251 23.42269249
H 19.87689686 20.45673963 22.15322462
H 20.75965196 20.71734734 16.86944073
H 20.16163960 22.06269300 17.46505498
H 23.56116987 17.44611953 21.22837374
H 22.16204313 17.71841276 20.56118306
H 20.73226412 18.30357917 24.70114769
H 21.06242004 17.14140118 23.59757170
H 16.13205728 22.33514540 19.71480314