18
i = 0, time = 0.0, E = 0.0;
H 23.49560907 17.80956654 20.21799096
H 22.32239270 18.88061133 22.83865290
H 22.96692674 19.94489515 23.84426793
H 22.08810758 19.92002572 19.83683912
H 20.82468528 20.55678344 19.36990142
H 19.08990910 19.50497818 21.18788818
H 18.04786689 18.47950931 20.96328904
H 20.18878206 16.23289772 19.34266264
H 19.99471327 17.81374996 19.89214794
H 20.53271978 20.54193878 22.67499778
H 19.37795202 21.59185461 22.13309293
H 21.89870940 17.56270961 20.31110670
O 22.73669922 18.00512527 20.80130075
O 22.13187306 19.75357748 23.26496047
O 21.78564574 20.77769139 19.43453071
O 18.86023315 18.81585259 20.54593423
O 20.65334720 17.11418497 19.55771716
O 19.57216011 20.71268013 22.47192684
18
i = 0, time = 0.0, E = 0.0;
H 20.72219169 17.85590128 20.06627566
H 19.85887622 18.01819562 22.58740882
H 21.00436060 19.01669820 22.96430380
H 22.57858710 21.55633317 21.32984659
H 22.63741019 19.93777382 21.09927943
H 19.20529596 19.62198632 20.07350422
H 18.80957507 19.23746910 18.57392885
H 24.45193376 18.65549833 20.51367940
H 22.94763026 18.00515493 20.56034802
H 20.23526168 21.02236732 21.27486674
H 19.30185780 20.19609297 22.21297472
H 21.38952782 16.63763232 19.48863804
O 21.40474829 17.17347790 20.27686876
O 20.04385693 18.88515322 23.07019065
O 21.98933889 20.79798981 21.13886396
O 19.30598151 18.82638335 19.41480326
O 23.54930799 18.69630911 20.93530754
O 19.30092530 20.74173508 21.35801371
18
i = 0, time = 0.0, E = 0.0;
H 20.52635253 19.14782876 22.69022874
H 19.37243842 18.94571697 21.01298431
H 19.51573287 20.34198257 21.70031235
H 23.08358134 20.38410885 18.76653624
H 22.37502029 19.27682440 19.52699421
H 18.45580215 16.92857510 19.98672317
H 19.21574387 16.58489975 21.24233474
H 21.36102030 17.35387829 20.20503544
H 22.27413032 17.79380401 21.31445105
H 21.60004526 21.26229252 20.35418695
H 20.69177731 22.55964396 20.85390519
H 22.06982598 19.51484274 22.65358727
O 21.45803624 18.84927501 22.94576046
O 19.06995406 19.47834069 21.84053721
O 22.60101325 20.23996996 19.54804840
O 19.29694454 17.02154017 20.33749027
O 22.20487205 17.78542410 20.34367901
O 21.12721439 21.72549971 21.20611404
18
i = 0, time = 0.0, E = 0.0;
H 22.17707330 15.94961776 22.14368106
H 22.07908066 19.83239303 23.96661824
H 21.07193862 19.55976402 22.81345990
H 19.70633472 21.78315452 22.37383313
H 19.46622656 20.68418912 21.28130328
H 20.64276273 19.31296688 17.42134082
H 21.30438867 19.19719232 18.84395190
H 23.11457727 18.75030337 20.17312543
H 22.05633093 17.77862791 20.74629010
H 17.82462213 20.14364826 19.55907805
H 19.30747906 19.67387310 19.37114543
H 21.98302494 17.39339488 22.93991793
O 22.46979481 16.88272665 22.19514383
O 21.78320896 19.11441258 23.39673091
O 20.11191461 20.93350865 22.05401774
O 20.64116967 19.79171766 18.32135311
O 22.14316976 18.55833037 20.07591853
O 18.59665672 19.82157601 20.09489270
18
i = 0, time = 0.0, E = 0.0;
H 22.36986353 19.20518980 19.49834853
H 22.69009796 18.92652213 21.69797454
H 22.65369532 18.06168497 23.03708267
H 21.48126741 20.87886990 20.71902546
H 21.18692172 21.87994077 21.84837466
H 20.12710303 17.01757211 20.46399856
H 19.29849836 17.85231904 21.41149302
H 19.96043470 20.40722133 18.92975510
H 19.85585767 18.90262476 19.44404617
H 20.57855818 18.64013412 23.08619223
H 19.25267561 19.33854782 22.91188732
H 23.67700710 18.45623323 19.60173993
O 23.21026556 19.18238047 20.01379845
O 22.20561937 18.82933549 22.61357906
O 20.81152935 21.53533357 20.99443150
O 19.32987673 17.54262529 20.48967346
O 20.45610141 19.57971846 19.02307469
O 19.58142978 18.46389329 22.93947676
18
i = 0, time = 0.0, E = 0.0;
H 20.89332793 17.57273155 22.42097688
H 21.86636987 19.46651507 23.28817200
H 21.62936368 18.61845606 24.45242447
H 23.41544491 21.49002524 20.10262429
H 22.79688969 20.04503049 20.40713365
H 18.28643436 19.98594454 19.11594997
H 17.51522283 19.67399576 20.38777429
H 21.88562840 17.84736466 20.54751742
H 21.77639880 18.45101170 19.19017131
H 21.02393647 21.04337317 20.60706567
H 20.20636201 19.61236758 20.95973666
H 19.90985685 16.68025574 21.53997828
O 20.45727637 17.43318882 21.53934937
O 21.94146749 18.51590163 23.55452557
O 22.78824817 20.99080170 20.68574749
O 17.89946656 19.19147569 19.60061180
O 22.44731820 18.33427409 19.88635956
O 20.18243790 20.60966768 20.78415349
18
i = 0, time = 0.0, E = 0.0;
H 19.70278513 16.91185834 20.10976941
H 19.19037110 18.03710757 22.96933817
H 19.80107841 17.68049647 24.27701225
H 23.84098036 20.01851734 21.89496707
H 23.53649095 19.75755865 20.44772739
H 19.61013144 20.05610288 21.25647209
H 18.07898199 20.00914487 20.96545022
H 23.39879704 17.76104974 18.67403191
H 22.00497133 17.98437979 19.36285196
H 20.90701487 22.35891218 20.70871778
H 21.66813468 21.21370146 21.28763967
H 19.38781623 18.29913812 19.89136587
O 19.88696842 17.59415250 19.44191804
O 19.86980693 17.45535478 23.32474599
O 23.31357968 20.39438447 21.17899215
O 18.80909096 19.39970339 21.33748417
O 22.92209864 18.41288285 19.27109492
O 20.91956440 21.84397678 21.57049004
18
i = 0, time = 0.0, E = 0.0;
H 20.05476444 17.18571589 22.31914792
H 20.23100831 19.70236331 22.48838944
H 19.55739185 19.74219682 21.22250134
H 23.10047733 19.57332651 22.82115496
H 22.34842460 19.15661082 21.50515549
H 20.69036610 20.36262764 19.43531998
H 19.64575856 19.77500398 18.40065116
H 21.85365749 17.39437507 20.68892819
H 21.36113453 18.41857039 19.71420462
H 21.99624862 21.42106592 21.25721852
H 20.59276335 22.03162793 21.15848994
H 19.48984927 16.08821463 21.41725604
O 20.34803750 16.39933784 21.73469243
O 19.35483875 19.41270781 22.10700557
O 22.29584662 19.82175260 22.30706247
O 20.21156184 19.55277254 19.12608803
O 22.19561928 18.21622767 20.24035196
O 21.32816547 21.64953821 20.57278891
18
i = 0, time = 0.0, E = 0.0;
H 21.31213304 17.52055801 21.88796408
H 20.73082349 19.28451335 23.34590206
H 21.93430135 19.45123158 22.38949118
H 22.21532404 19.81151250 20.05755757
H 22.65516072 21.31347451 20.45305898
H 17.99938900 18.58528209 19.71961407
H 19.51892659 18.72599895 19.63114911
H 21.74648998 17.74464027 19.79190711
H 22.97255419 17.85598682 18.91521927
H 20.57136333 21.16021768 21.75297307
H 19.06305263 20.91605754 21.78189754
H 21.26294652 15.97684726 21.43908983
O 21.11788776 16.88233698 21.14411538
O 21.56718458 18.78504980 23.03215203
O 22.29491801 20.48784601 20.78226498
O 18.71407285 19.24663042 19.86821762
O 22.18970534 18.36650960 19.14082003
O 19.78347769 21.44181258 22.19996769
18
i = 0, time = 0.0, E = 0.0;
H 19.67780970 17.72960234 21.64434229
H 21.43457370 19.64182172 23.26266675
H 21.80298776 20.67146707 22.09390718
H 21.92535372 20.96683739 20.15747093
H 22.96856434 20.00052228 20.59136696
H 19.29960229 18.79104046 19.46835152
H 19.29810399 17.27338563 19.31394424
H 22.33304561 17.77795900 21.42067847
H 21.68109721 17.98029954 20.07672117
H 19.27860899 21.60187533 20.83542181
H 19.99680094 20.42591557 21.46139168
H 19.62248999 16.91186945 22.99003536
O 20.10543497 16.98602555 22.13894995
O 21.08353878 20.33393080 22.70124027
O 22.68251152 20.99107411 20.76480217
O 19.91179126 18.01747794 19.24114665
O 22.54873735 18.14551327 20.57035659
O 19.50303872 20.64630271 20.61555375
18
i = 0, time = 0.0, E = 0.0;
H 21.32279642 16.25448046 20.81264683
H 20.11651723 19.22684334 23.16167912
H 19.64886564 20.56653956 23.37432426
H 23.37255360 21.34890013 20.68017845
H 22.70691690 20.25181623 21.54790383
H 20.22222791 19.24263478 19.30716596
H 21.73727931 19.67736171 19.35841799
H 22.89806693 18.43691594 23.35627856
H 22.08055216 18.09978754 21.97227504
H 18.40278329 20.56273130 19.99875436
H 18.75127257 19.56735784 21.24260751
H 21.36345482 17.56896903 19.79424533
O 21.77191622 17.10875121 20.55132809
O 19.48261253 19.78681242 22.82216186
O 22.66054233 20.75979451 20.68975830
O 21.11207930 19.08716646 18.89084450
O 22.15485281 18.71909836 22.76237604
O 18.44486873 19.59369761 20.23429422
18
i = 0, time = 0.0, E = 0.0;
H 21.11934693 16.11647103 22.14177048
H 21.87438641 19.17032736 23.88566553
H 21.97822896 19.91548695 22.50036180
H 23.60796520 21.08885648 20.80947361
H 22.19651084 20.40201465 20.28652350
H 20.08120239 17.31516299 20.19685544
H 18.67127355 17.64134693 19.81880127
H 20.78334407 20.22189609 18.19156928
H 20.83741384 19.00225131 19.18619675
H 19.85957589 21.36925612 21.07589825
H 20.17616195 20.46594130 22.36383703
H 21.44453035 17.79641949 22.20904906
O 21.26935395 16.95031071 21.67993193
O 21.46498495 19.21226791 23.03178896
O 22.74308076 20.64524909 21.10461509
O 19.48442328 17.41272769 19.39111037
O 21.22836389 19.92580653 19.00298536
O 19.43624588 20.92779100 21.86258888
18
i = 0, time = 0.0, E = 0.0;
H 19.60320958 19.05484584 22.61544201
H 21.56426957 21.82155700 22.97701274
H 22.95885972 21.41855730 22.25090380
H 22.75889748 18.68293757 20.50517874
H 22.25274971 17.31549648 21.09990501
H 20.08049487 19.13897237 19.30646252
H 18.91895987 18.62971927 18.38825085
H 19.82857229 16.09564227 21.62873640
H 20.00384021 17.07693012 20.33539000
H 20.58245333 20.20900345 20.99671115
H 20.52295207 21.54049645 20.07606994
H 21.12155906 18.87662107 22.03662380
O 20.47608298 19.48109538 22.47848555
O 22.31777232 22.20775034 22.43900948
O 22.52661130 18.22340559 21.35278997
O 19.58734664 18.30572965 19.02583212
O 20.35452729 16.31720244 20.80020669
O 20.51740848 20.57958513 20.00500538
18
i = 0, time = 0.0, E = 0.0;
H 20.89494521 18.60407439 23.19674154
H 18.78279228 19.16846593 22.29714330
H 18.26820629 18.06312226 23.38119174
H 22.22624401 19.84558337 21.86351498
H 22.54350470 19.75433568 20.32596532
H 20.02468475 19.29191497 19.25072487
H 20.61075881 17.93431164 19.88000324
H 23.67353806 17.93113012 18.85087999
H 22.16177214 18.34594180 18.74878618
H 20.40992599 20.48089420 20.99302990
H 19.31192755 21.49425945 20.75745742
H 21.87002508 18.54346970 24.44252956
O 21.82615733 18.94211734 23.51052121
O 18.98858827 18.38902635 22.84491417
O 22.03108051 20.24978592 20.99380264
O 20.40152849 18.33561553 18.99597695
O 23.07733468 18.68662632 18.96741563
O 19.41842248 20.53700500 20.67710093
18
i = 0, time = 0.0, E = 0.0;
H 20.64565354 18.00084826 23.09811916
H 19.70994668 20.14009108 23.05843703
H 20.78848308 20.32735366 21.86603824
H 22.42794139 22.00503541 20.32159630
H 22.50397499 20.41308418 20.46809444
H 20.50838332 17.42515938 20.93993669
H 19.68007193 18.30968683 19.93226020
H 22.53671636 18.38360775 21.43724981
H 22.72120497 18.20551257 19.95214168
H 19.84705752 20.57776676 19.54251607
H 19.07228850 20.04906440 20.73814470
H 22.08848685 17.47102314 23.59805601
O 21.51252439 17.62577322 22.83198845
O 20.06399021 19.77293553 22.21556814
O 21.91610874 21.17698723 20.41111271
O 20.17763708 17.49964814 20.00637385
O 22.99616549 18.79182044 20.70653211
O 18.96631026 20.15640864 19.75738128
18
i = 0, time = 0.0, E = 0.0;
H 20.60893683 17.39596726 21.23883541
H 21.29431290 20.32648282 22.17572916
H 20.11438967 19.42847785 22.51774493
H 23.41148247 19.22421687 21.36166925
H 23.57491967 19.25742147 22.90721796
H 20.79093373 20.15063490 20.48744434
H 20.26238342 20.25654077 19.03900769
H 22.29084099 18.69875413 19.47472462
H 23.67996775 18.13702841 18.93439417
H 17.82329921 20.20263473 19.73096496
H 18.44271513 19.86408526 21.14484760
H 19.26617069 16.98008162 21.88177780
O 20.12394614 17.41275917 22.10797016
O 20.31622587 20.39845934 22.29187072
O 23.11971712 19.71076898 22.15936609
O 21.04760085 19.96830636 19.53212617
O 23.05878140 18.17636532 19.77148681
O 18.02756956 19.44423165 20.32182118
18
i = 0, time = 0.0, E = 0.0;
H 21.24857536 16.73337301 21.48237746
H 21.41533133 19.42346144 22.48420569
H 20.71792513 18.34973514 23.54814940
H 23.26515589 20.42158733 22.06882106
H 22.24161265 20.31212528 20.94353148
H 19.83745378 18.70942694 21.07608718
H 19.38699979 19.85474687 20.22941255
H 22.33897093 18.22500570 20.31230842
H 21.48384035 18.86786605 19.21613006
H 20.48211300 21.82965425 21.16685376
H 19.08189832 21.62385696 21.67606508
H 20.45295409 16.76542126 20.23484330
O 21.32044793 16.27973490 20.59727011
O 20.70894658 18.70233775 22.61064704
O 22.33232661 20.64628233 21.89259847
O 19.44360610 18.88301178 20.16972058
O 22.25523266 19.03732782 19.81480026
O 19.60855342 21.48697366 20.87629179
18
i = 0, time = 0.0, E = 0.0;
H 19.95826353 18.43439069 19.48307550
H 22.03977136 17.78787601 23.20842205
H 22.06950100 17.81742033 21.60441066
H 23.26785284 21.56244642 22.12823249
H 22.33766273 20.69780448 21.33963995
H 19.01475696 19.74689818 20.95272559
H 17.97064135 19.12998890 19.86687021
H 23.63577326 19.04392866 19.92851476
H 22.10095301 18.40800204 19.58457473
H 20.05277187 20.47944555 22.49319760
H 20.12361856 18.86432589 22.43477274
H 20.31233198 17.41313091 18.37023092
O 20.64923393 17.69017599 19.25781734
O 21.50254429 17.76309862 22.38506777
O 22.38747173 21.62795415 21.72880533
O 18.81887210 19.62757149 19.96221935
O 22.74699564 18.77347392 20.20311547
O 19.50533464 19.66242884 22.61609443
18
i = 0, time = 0.0, E = 0.0;
H 20.70609821 17.31789692 21.72230980
H 20.38128797 19.35215395 22.48405619
H 21.79636796 18.95995216 23.12638117
H 22.16575854 21.64308757 22.22533741
H 22.38637796 20.33765210 21.54704279
H 19.57150993 18.45114549 18.14540551
H 20.25204404 18.11461574 19.47863634
H 22.26842048 18.60723362 20.56978254
H 21.93958205 19.32730309 19.31223040
H 19.01709035 21.18705232 21.26675289
H 19.42369016 20.06671145 20.29727543
H 19.30866228 17.72204371 21.08407410
O 20.13381263 17.29117394 20.88517982
O 20.88948544 18.58205177 22.90714935
O 22.44330534 20.75123775 22.42868580
O 20.14673139 18.84554777 18.79943694
O 22.71935620 19.18293029 19.92950086
O 19.50879732 20.38457984 21.21169659
18
i = 0, time = 0.0, E = 0.0;
H 20.33079545 16.34060663 21.75898336
H 22.44572250 18.84279877 23.56263289
H 21.42497005 18.31377991 22.58690623
H 22.18107007 21.53131865 19.56001009
H 22.02883636 19.96464227 19.51641819
H 17.74157850 19.07860773 20.65101823
H 18.91031179 19.60260846 21.61731480
H 22.60073705 18.82052071 20.86105099
H 22.17551630 17.83154939 19.80481437
H 20.85895477 20.40956366 22.23112212
H 20.36062500 21.06934116 20.89373019
H 20.19820563 17.52743255 20.85760674
O 20.88991004 16.91610560 21.15269995
O 21.88694313 19.10735015 22.77655569
O 21.64382744 20.80156108 19.14043994
O 18.46333527 18.75380922 21.21307883
O 22.71842252 18.60768611 19.86609769
O 20.11049456 20.96152303 21.84630045
18
i = 0, time = 0.0, E = 0.0;
H 20.85894306 18.20050500 20.87976604
H 20.33992594 22.13864469 22.64715142
H 21.03051907 21.30495125 21.44519897
H 22.26557365 20.53485460 19.46996926
H 22.90558704 20.34193407 20.82688220
H 18.72105825 17.54355974 20.43797761
H 18.01831526 16.25828189 20.06721951
H 22.89425911 18.49027243 21.66067945
H 24.01588352 19.51572162 22.44139629
H 19.33025548 20.06177774 21.41900148
H 19.14177947 19.79333353 19.87056767
H 20.97477929 16.71574320 21.32732246
O 21.52291081 17.50687655 21.28027978
O 20.14857040 21.44914526 21.97408314
O 22.18994329 20.97368250 20.26947226
O 18.92631432 16.55813255 20.28394005
O 23.60714447 19.26899820 21.56412939
O 19.36596067 19.29248492 20.71200743
18
i = 0, time = 0.0, E = 0.0;
H 21.55818218 17.24767870 22.55860191
H 20.15648042 19.49192364 22.49113814
H 21.69298078 19.43731066 22.65702815
H 21.84847826 21.58004487 18.99770856
H 22.15217285 20.41192799 20.11391014
H 18.10969102 18.03949765 20.47634932
H 19.29432897 19.01656977 20.02309052
H 22.79669825 18.09312864 20.79531440
H 24.00672554 18.64401693 19.93839721
H 20.17507421 20.83696238 20.79561019
H 19.10055360 21.75917753 21.26996383
H 20.85979048 16.91320564 21.24231316
O 21.76587202 16.88841314 21.68345711
O 20.88313185 19.11478217 23.07261994
O 21.61131638 21.19211715 19.87715015
O 18.93361780 18.08719467 19.86347058
O 23.18559638 18.92946172 20.40499659
O 19.30228510 20.80132144 21.25364571
18
i = 0, time = 0.0, E = 0.0;
H 20.48829264 19.06679771 23.09964749
H 21.51177441 20.86284007 23.39207771
H 21.96797586 20.53187508 21.88600473
H 24.21777930 19.76375682 20.87209978
H 22.94812739 19.82099812 19.88399239
H 20.02117783 18.27859564 20.23653579
H 20.66559881 17.13448033 20.97984901
H 21.88176630 18.55146810 18.85885446
H 22.87612977 18.71066246 17.74588631
H 17.51311179 19.87132492 20.79204798
H 18.36438726 19.27280713 21.97670676
H 19.80569808 17.59780315 23.58425162
O 19.83301378 18.33608215 22.93704731
O 21.16532256 20.66247713 22.48873679
O 23.26425573 20.06815758 20.84938698
O 20.85196130 17.67497979 20.22099236
O 22.47678635 19.27306259 18.47518548
O 18.05830605 19.12504511 21.06122615
18
i = 0, time = 0.0, E = 0.0;
H 21.95676426 17.95566195 22.16040850
H 22.50738977 19.59717586 24.19004452
H 21.81454763 20.07103107 22.94188866
H 22.01657327 22.13271520 21.87458183
H 21.77141918 20.96909887 20.82835781
H 18.97180907 16.54963887 19.84287167
H 19.00676476 18.12744709 19.86929583
H 22.00446787 18.87185048 20.44320333
H 22.48379029 19.64044766 19.10390164
H 19.02653871 20.23614285 20.44775060
H 20.06118368 19.75773205 19.46010750
H 20.72572600 17.32949280 21.17897519
O 21.72675592 17.48547091 21.27097179
O 22.35924674 19.36238500 23.26356665
O 21.54910797 21.31561826 21.76257508
O 19.10974952 17.33288178 20.45226802
O 21.81824125 19.68436844 19.79762597
O 19.08117928 19.84724637 19.54646510
18
i = 0, time = 0.0, E = 0.0;
H 21.20960913 16.65911352 20.88345650
H 20.73108376 18.57046557 22.60881269
H 19.64227822 19.33291119 21.82593390
H 22.24002337 22.07673606 22.93661665
H 22.50161191 20.58468081 22.33831617
H 19.43565891 19.03331818 19.10842991
H 20.57175799 18.46675038 18.36788240
H 22.76586471 18.37753380 20.60031620
H 24.05397121 19.13235519 20.91001343
H 18.52242334 21.31727362 21.96479305
H 20.06414715 21.59865139 21.95038671
H 21.10294833 16.83245407 19.35645260
O 21.77076590 16.68883735 20.10042048
O 19.83125260 18.44585937 22.25004541
O 21.81433420 21.22317324 22.73078137
O 19.73572670 18.16495502 18.73220551
O 23.13773340 19.28263264 20.79183639
O 19.32331850 21.17565030 21.45605000
18
i = 0, time = 0.0, E = 0.0;
H 20.84519816 16.18563221 21.22669800
H 22.81755022 18.66905666 23.27550308
H 22.15556533 19.67539922 22.26818775
H 21.20497327 21.33922229 22.03982761
H 22.11725063 21.15576801 20.77597485
H 19.24934166 19.22284056 18.61357976
H 19.31084492 19.51749159 20.15120529
H 22.75560231 18.85721116 19.19868470
H 21.39149767 19.68488150 19.12124733
H 17.72436131 18.70645254 21.99673403
H 19.16373117 17.95634098 21.79917007
H 21.22413292 17.41895963 22.14777373
O 20.44926819 16.87836813 21.85155461
O 22.43152275 18.72276520 22.37280788
O 22.13957864 21.32404812 21.74919927
O 19.73698598 19.73523536 19.23654509
O 22.40845387 19.78548667 19.22621835
O 18.62885687 18.76157678 21.63993478
18
i = 0, time = 0.0, E = 0.0;
H 19.29222948 17.01874768 21.16202422
H 22.34261010 21.55941330 21.52398268
H 21.79439143 21.32781655 22.84251476
H 24.52582750 20.02166920 21.02730492
H 23.16023598 19.52012791 20.46561676
H 19.39665075 18.95168073 20.19199257
H 18.34747523 18.53595459 19.12595141
H 22.04275890 17.28744780 20.92364611
H 21.37659745 17.70435685 19.59459891
H 20.16972142 21.10040142 21.26423288
H 19.36564425 20.06868188 22.05857133
H 20.01897457 15.94282240 21.97097326
O 20.04180660 16.91377710 21.89274039
O 21.50350066 21.77908501 22.04325707
O 23.60686942 20.06037614 21.13444320
O 18.99192471 18.16468673 19.72933534
O 22.16727571 17.81572268 20.13910990
O 19.36527860 20.43288858 21.16655603
18
i = 0, time = 0.0, E = 0.0;
H 21.73517370 16.95330754 21.49829426
H 21.28532086 20.90742162 24.02403051
H 21.82989953 20.64636386 22.50368504
H 22.12985104 19.06757825 20.74955519
H 23.46137058 19.82006175 20.55488976
H 17.57123636 18.18821245 20.55346962
H 18.73684664 19.09025647 21.14791793
H 22.81020254 17.89786020 17.73419810
H 22.49804883 17.46296718 19.13207249
H 19.75133138 21.04384831 22.16336197
H 18.68588142 21.81540813 21.29122716
H 20.28931982 17.16881940 20.62963636
O 21.32088120 17.21715487 20.65051663
O 21.12555481 21.09403182 23.06550052
O 22.70522748 19.70755259 21.18458384
O 18.54341419 18.17506070 20.77182488
O 23.20152216 17.91400350 18.63050511
O 18.84612396 20.99428069 21.81316310
18
i = 0, time = 0.0, E = 0.0;
H 21.49133484 17.44382016 21.53264201
H 20.28842192 18.99995351 23.19746654
H 20.63095700 20.34196217 22.40150301
H 22.47771381 21.77168183 21.59835176
H 22.02857424 20.38789384 20.77950788
H 20.18657919 18.41131334 19.87137208
H 20.76898210 17.02062547 19.17624021
H 23.57047561 19.70515812 19.20299057
H 22.21995462 19.06478145 18.90021993
H 19.12624169 19.40988571 21.45504559
H 17.81527593 19.27639085 20.50354661
H 22.04763520 16.89842368 22.87976977
O 21.44742026 17.56978781 22.51411053
O 19.86784328 19.78121045 22.76766920
O 21.83117678 20.98317186 21.58762503
O 21.03076518 17.82136366 19.63502241
O 22.67171348 19.90681053 19.06007022
O 18.77613468 19.12354864 20.58207062
18
i = 0, time = 0.0, E = 0.0;
H 20.30904778 16.79812111 22.16932445
H 21.26542195 22.06351575 22.01638047
H 21.84601057 20.63301787 22.24558367
H 21.99441939 19.72381503 20.22922441
H 21.93926462 18.76493369 21.34741237
H 20.22357771 19.75150782 19.03828874
H 20.03016184 20.44884379 20.26687589
H 22.08490096 16.69609878 19.02592243
H 22.77605317 17.43642300 20.12031303
H 18.87245806 19.12581003 21.62519520
H 19.56366460 20.41190421 22.25320090
H 20.44948143 17.07588267 20.68609648
O 20.02725369 17.45934903 21.48631731
O 21.23207724 21.30906942 22.65085991
O 22.60075468 19.33293121 20.96956706
O 20.69380326 20.40184178 19.53014081
O 22.23775719 16.58655074 19.94288385
O 18.91516682 20.08367703 21.59671570
18
i = 0, time = 0.0, E = 0.0;
H 20.41804132 18.07560720 19.50716600
H 20.31138132 21.70473844 22.87393111
H 21.28894189 20.90985346 22.13136444
H 23.30095558 21.70512439 21.79720712
H 23.35127423 20.05360753 21.41457236
H 18.72305347 17.70448237 20.68811586
H 17.96584430 17.60693165 19.31712799
H 22.81386116 18.27610759 20.22332962
H 24.06769073 17.67597347 20.95223697
H 18.19222236 18.64126586 22.86440424
H 19.13412821 19.44414830 21.97559022
H 21.43669934 18.92035915 18.59444403
O 21.26761017 18.64898733 19.55555386
O 20.31805779 20.95579722 22.32375953
O 23.06464339 20.78420241 22.03128201
O 18.89141141 17.42309874 19.71184736
O 23.72669472 18.54093053 20.54082801
O 18.46046994 18.70773144 21.93032139
18
i = 0, time = 0.0, E = 0.0;
H 23.69381833 17.59413376 21.86562750
H 21.01403174 20.66198317 21.50986928
H 20.51311547 21.70455142 20.50504385
H 23.28754306 19.97230548 21.03804989
H 22.26149811 18.92162847 20.65209649
H 18.09862116 18.57947997 19.75751229
H 18.54468471 19.31070339 21.00472581
H 22.00889257 17.25836952 19.80296872
H 20.63107564 18.03629216 19.54863277
H 18.77859522 19.86359816 23.07260798
H 19.17045103 20.85288726 21.96577194
H 24.60622874 16.66724263 21.16770586
O 23.64470946 16.85483562 21.19451775
O 20.53447546 21.55984414 21.42674266
O 22.55280631 19.54733477 21.48452874
O 18.87848620 18.75712168 20.27123463
O 21.63359270 18.08408437 19.44783442
O 18.38372987 20.33911868 22.29701498
18
i = 0, time = 0.0, E = 0.0;
H 20.25614493 16.16809789 20.06064489
H 19.47826289 20.57941632 24.55174088
H 18.78457139 19.45592891 23.76803785
H 23.29779137 19.46899499 22.05423830
H 23.32333078 19.15129408 20.60353830
H 19.55161838 20.05270312 20.28767589
H 18.44688285 19.16242376 20.95671639
H 22.42271382 17.15447681 20.07268120
H 23.79219455 16.74672077 19.72807669
H 21.60737432 20.72120427 20.57030585
H 20.64794735 21.82951623 21.10136987
H 19.93814676 17.67850915 20.19543956
O 20.69994986 17.04472459 20.18014917
O 18.86127176 20.44893889 23.81965151
O 23.04354371 19.92035069 21.23481596
O 18.98639639 19.16751008 20.16527935
O 23.34669148 17.46321319 20.20572612
O 20.75683031 21.17660178 20.38647222
18
i = 0, time = 0.0, E = 0.0;
H 21.39342386 18.08401871 21.71846656
H 22.82650571 20.10935758 23.82408228
H 22.49303628 20.48320353 22.38088738
H 22.96631906 21.59898373 19.88664098
H 21.60908348 20.87791604 19.96834200
H 19.77614412 16.90581583 20.24025812
H 19.05437146 17.88811190 21.01938611
H 19.88005884 18.81961151 19.32104734
H 20.17204583 19.99394510 18.22942075
H 19.94119909 19.71980947 21.36088652
H 20.54810752 19.54910719 22.76663587
H 22.40132809 16.90069874 21.65445523
O 21.75863141 17.37070349 21.07876522
O 22.06354159 20.21410910 23.25593170
O 22.33669495 21.30223435 20.51340415
O 18.97903438 17.47908792 20.08476166
O 20.51342418 19.59525732 19.05112604
O 19.94792844 19.08597471 22.10764905
18
i = 0, time = 0.0, E = 0.0;
H 21.98900794 18.47585689 22.06760764
H 20.17356912 18.88419875 22.48020443
H 20.91246849 20.29914959 22.77852805
H 20.68462570 19.64051727 19.74254772
H 22.21119389 19.92234490 19.91531179
H 18.18917704 18.42237551 21.13673898
H 19.50774530 17.65046481 20.54377083
H 21.22243708 17.24397783 19.97745075
H 20.42951437 16.09125222 19.25357598
H 21.11476673 21.42908065 20.80548093
H 22.11784858 21.93203792 21.90005779
H 23.31444254 17.76393309 21.68919708
O 22.56999394 18.26003948 21.25709101
O 20.94378310 19.33654157 22.95559362
O 21.37648975 20.30616223 19.59504973
O 19.15591790 18.46100910 21.16326311
O 20.44754128 17.06416118 19.40195262
O 21.18080779 21.81951541 21.72373035
18
i = 0, time = 0.0, E = 0.0;
H 21.00301029 17.77717769 20.02417214
H 20.71122366 19.47210501 22.65422187
H 20.41335476 18.12272276 22.01290352
H 21.64932721 21.51378808 22.78369112
H 22.61811425 20.43325963 22.19868600
H 19.98468236 19.61853487 19.18125769
H 20.92790889 19.51667382 17.93155981
H 22.53552825 18.29790099 21.06994483
H 22.36551549 19.54183363 20.06301481
H 17.85861024 19.67038496 20.15157368
H 19.26666040 19.44487532 21.14673584
H 20.29659084 16.51411089 20.54111021
O 21.07742714 17.06647150 20.71898606
O 19.93256713 18.88470011 22.41193411
O 22.16220207 20.72114170 23.05499277
O 20.95315542 19.35056791 18.91153255
O 22.84744030 19.20644550 20.92791036
O 18.84263553 19.88149844 20.23082544
18
i = 0, time = 0.0, E = 0.0;
H 21.49281698 17.92966968 21.30110259
H 17.62060790 21.11785150 22.06663407
H 19.33554466 20.99496494 21.94315737
H 21.48155653 20.01099936 21.86926989
H 21.65993435 21.04125328 20.78707243
H 21.51985049 18.10013701 19.00983169
H 20.27933707 17.60890836 19.88389626
H 23.61329743 18.86632362 20.80980713
H 24.63237917 19.03602996 19.62687871
H 18.02003693 17.95290919 20.70439109
H 18.81049997 19.24285058 20.94751391
H 21.45047924 18.13151952 22.83461471
O 22.02070165 18.36549199 22.09285279
O 18.42034130 20.50719451 22.12328826
O 21.17513641 20.90640544 21.62593185
O 21.23965234 17.40942647 19.65300451
O 24.14187362 19.49952768 20.34576133
O 18.79971482 18.41584555 20.28774075
18
i = 0, time = 0.0, E = 0.0;
H 21.50779702 18.59201594 22.83974773
H 24.22146963 18.99964865 23.10721219
H 23.40088942 19.08804450 21.72004100
H 23.52372122 17.60370718 20.04784820
H 22.72466205 18.87825941 19.73144546
H 18.24734821 20.05438320 20.09266424
H 18.28775184 21.38379873 19.42623218
H 20.37482947 18.69399773 20.16709080
H 20.53844335 19.89494027 19.20215824
H 18.11248448 18.96021442 22.06264220
H 19.56894189 19.48605364 22.25077161
H 20.72302775 17.57248513 23.41965071
O 20.68718222 18.11729189 22.63345608
O 23.39133216 19.26909178 22.70887699
O 23.56696019 18.60548137 20.14137233
O 18.46569178 20.44792623 19.23637504
O 20.96067040 19.00356830 19.44364996
O 18.64273162 19.71256504 21.82099004
18
i = 0, time = 0.0, E = 0.0;
H 18.68821335 18.33958025 23.15325199
H 22.26643109 20.06716385 23.61880958
H 22.35426410 19.48762015 22.17128969
H 22.22685504 19.60339350 19.87523515
H 22.97676906 18.26634194 20.20527801
H 19.96219159 20.21691208 19.56034077
H 20.46806694 20.18101196 18.11344155
H 20.81280963 17.17455882 20.50592640
H 20.97134397 17.30024350 19.05200446
H 20.37059412 20.95843491 21.78008012
H 19.27341173 22.16049481 21.65322032
H 20.26077569 18.49680491 23.08583963
O 19.50504798 17.98745020 22.69970685
O 21.75078539 19.86366554 22.83505483
O 22.96493085 19.27824152 20.45370960
O 20.53255589 19.71682244 19.01551829
O 21.45910413 16.86567050 19.78191553
O 19.53992383 21.25222663 21.28026601
18
i = 0, time = 0.0, E = 0.0;
H 19.71247487 18.80865139 21.27794973
H 20.93205204 18.00707835 22.98925314
H 21.12824505 19.64442874 22.75179652
H 23.47446617 20.83249088 21.89757741
H 22.51114335 19.81870598 21.22103343
H 22.32481646 19.06907314 19.13534934
H 20.91264504 18.71804727 19.67345898
H 21.66187456 15.54107303 21.38746733
H 21.43784546 16.89529830 20.79632482
H 20.76650593 21.62756187 20.93032073
H 19.71187689 21.21874311 19.98920045
H 18.48477839 18.58289905 20.33361023
O 19.32126984 19.13514905 20.42980699
O 20.50719119 18.82532996 22.72915599
O 22.55825909 20.53329005 21.89014631
O 21.89278317 18.70689548 19.93623431
O 20.91508360 16.05219575 21.03737200
O 20.40485077 21.93100639 20.06811366
18
i = 0, time = 0.0, E = 0.0;
H 19.81767449 18.19236410 21.20335650
H 21.34230325 18.64178285 24.32982693
H 21.05722488 18.65216735 22.92019776
H 23.24337660 20.51955731 21.35552202
H 22.53506594 19.24962867 20.78303265
H 19.55384823 20.81051972 18.19264445
H 20.37352696 20.85505439 19.55936154
H 21.43974174 17.63543502 20.13110502
H 21.30051407 18.78051108 19.18520064
H 20.94755986 20.29076087 21.55951396
H 19.49905168 20.39257539 22.08529451
H 19.82590613 16.77549715 21.99763656
O 19.99340470 17.24112639 21.11627437
O 20.61341734 18.42162720 23.73994064
O 22.63935143 19.84475040 21.63498116
O 20.47160615 20.64513771 18.58017531
O 22.00212855 18.28723046 19.66410235
O 20.01328244 20.61598295 21.29743276
18
i = 0, time = 0.0, E = 0.0;
H 20.65890096 17.51979681 21.67120866
H 19.82964439 20.26597587 23.80117381
H 21.03061644 20.39704616 22.75034969
H 22.51612583 20.17457925 20.90215662
H 23.17624945 21.38072616 21.64873894
H 19.43958012 19.54274962 19.38208774
H 19.95814302 20.20880360 18.08325282
H 22.53030651 18.04491781 20.56518617
H 21.86652277 18.94658869 19.32017415
H 18.39615706 17.88669557 21.39027409
H 19.21764358 19.08890926 21.92619087
H 21.98948234 17.42404798 22.48643639
O 21.53106637 17.03984055 21.69358446
O 19.99858251 20.26418925 22.85647115
O 22.36502539 20.84561434 21.62379416
O 20.18811433 19.45304567 18.67318244
O 22.61344827 18.90264346 20.04302221