9
i = 0, time = 0.0, E = 0.0;
H 19.47376314 20.50115118 17.25432797
H 21.52481568 16.60619481 19.66377718
H 22.02577914 15.73839380 18.47129921
H 19.65270455 17.62951309 20.11799563
H 20.35714645 18.85550083 19.48335775
H 19.11784988 21.77136939 18.13347347
O 19.77751545 21.04617512 18.01921275
O 22.13578343 15.84572504 19.46468771
O 20.44400055 17.92595670 19.61594384
9
i = 0, time = 0.0, E = 0.0;
H 20.82150035 18.69125691 19.26222726
H 21.74948065 18.22466969 22.56779136
H 22.88798710 18.92784129 22.01523472
H 18.38450156 17.79327370 17.00324137
H 19.88444635 17.95821559 17.30351825
H 21.20492601 19.86996721 18.34443495
O 20.76843119 19.00426056 18.33626142
O 22.17466289 18.39694377 21.73305129
O 19.23900507 17.39377570 16.81806868
9
i = 0, time = 0.0, E = 0.0;
H 21.32576463 20.16596219 18.95435398
H 20.83073075 15.26587604 20.42651636
H 21.33499729 15.13452291 19.02408735
H 18.88890884 19.32105282 17.89698515
H 19.18048259 18.92182747 19.42580561
H 22.35596929 20.85686453 19.76328680
O 22.16399279 20.65883135 18.83811107
O 20.50658463 14.97031449 19.51104372
O 19.57553300 19.27918575 18.60157154
9
i = 0, time = 0.0, E = 0.0;
H 20.01573880 16.52543517 18.20644035
H 19.19166427 17.06190265 21.54599613
H 20.61765514 17.13398147 20.91101009
H 21.97871109 20.47907800 16.48763452
H 21.09080586 20.17900923 17.73621742
H 21.24317390 17.39261217 17.77591691
O 20.25905506 17.45457467 17.97176334
O 20.11245196 16.80673961 21.68756233
O 21.86068611 20.70334832 17.46956445
9
i = 0, time = 0.0, E = 0.0;
H 22.01293817 18.38123033 20.79960036
H 19.97733614 18.26694032 19.83871325
H 19.20191179 17.30300827 18.92122250
H 20.74445510 18.45505923 17.37156935
H 21.57042754 17.41720310 16.30471576
H 21.22661863 18.05013744 22.01701774
O 21.13318533 18.48531610 21.12283266
O 19.47624448 18.26655124 19.00275336
O 21.58521686 18.26940053 16.84014762
9
i = 0, time = 0.0, E = 0.0;
H 18.53191376 16.29985606 19.21445445
H 22.20335980 18.17356659 18.04234970
H 20.89030324 18.52767872 17.15770515
H 21.37917319 20.24072220 20.74384367
H 22.22643860 18.98663749 20.97990582
H 19.18947202 17.78661962 19.24710640
O 19.04083618 16.94980812 18.72199996
O 21.86838462 18.64418455 17.22463696
O 21.30514779 19.29235214 21.01074706
9
i = 0, time = 0.0, E = 0.0;
H 20.20948556 17.82733605 18.27426896
H 20.71380115 19.14088917 21.76384213
H 19.30937339 19.36993948 21.26041011
H 21.74115244 19.46966941 16.00047617
H 22.24145587 18.26006534 16.80220066
H 20.35214593 17.28973998 19.67816061
O 20.46414314 17.02786495 18.73520939
O 19.96406161 18.64891269 21.39103591
O 21.77691778 19.12498068 16.93232340
9
i = 0, time = 0.0, E = 0.0;
H 22.58419448 16.72391431 20.42764962
H 19.58381595 18.59801372 18.07207733
H 18.08481903 18.39161701 17.88226360
H 21.28429463 18.85701735 19.98785082
H 20.14696531 19.75931464 20.60258185
H 23.49428055 17.86012663 19.88694957
O 22.70311877 17.31402551 19.69672563
O 18.96576735 18.11583506 17.44572942
O 20.49774378 19.44546339 19.72206063
9
i = 0, time = 0.0, E = 0.0;
H 20.85202697 17.57587357 19.69177348
H 24.10817131 18.41833309 19.10154559
H 23.97939051 17.42445010 17.80820601
H 18.86307803 19.33979046 19.52621995
H 17.70088129 20.34357680 19.55024717
H 21.37193019 17.72085640 18.32177886
O 20.52251901 17.83503875 18.83630935
O 23.62869187 17.62744936 18.69865122
O 17.90849454 19.37296211 19.50972127
9
i = 0, time = 0.0, E = 0.0;
H 19.94492934 15.97507800 16.35890684
H 21.71742904 18.40637860 18.86217287
H 21.72620054 19.50912779 19.85698248
H 20.09808357 21.27298350 21.03072884
H 20.07171701 19.78821189 20.72637660
H 20.82957643 14.77361225 16.73147204
O 20.62491618 15.70114879 16.98022924
O 21.68807209 18.55507795 19.82448451
O 19.90344209 20.64836957 20.26725709
9
i = 0, time = 0.0, E = 0.0;
H 19.23755787 15.81800663 17.88682643
H 19.62358202 19.77707905 19.05803998
H 21.06267145 19.60031026 19.55390304
H 22.45060818 17.20747177 19.54908002
H 23.07137644 18.10468551 20.52186579
H 19.08431389 16.87965997 18.99401788
O 19.43677605 16.79276523 18.10703631
O 20.48348397 20.13623889 18.97346356
O 22.28721284 18.12290669 19.86564620
9
i = 0, time = 0.0, E = 0.0;
H 23.51735697 18.97001309 19.54356280
H 18.01314171 19.35478335 19.10666300
H 19.35530110 18.49344894 18.61608330
H 20.54667544 16.47738647 18.57048203
H 21.19659554 17.90265418 18.41828026
H 23.26091519 17.46772787 19.92134280
O 22.76098053 18.35471924 19.79705345
O 18.95918263 19.28645805 19.11964410
O 20.40163214 17.33016402 18.11685508
9
i = 0, time = 0.0, E = 0.0;
H 20.63638405 17.91315160 19.92166199
H 18.89178954 19.60214460 18.98339496
H 20.17927939 19.46886332 18.25163384
H 21.81354792 18.01848735 16.90090148
H 21.64133716 17.75895694 18.41023811
H 20.69597250 17.04905553 21.16559788
O 20.69212447 16.94176123 20.18062250
O 19.83275400 19.42976132 19.14728207
O 21.72492037 18.52770162 17.73985832
9
i = 0, time = 0.0, E = 0.0;
H 21.61861943 18.42840338 20.88780356
H 22.80054057 19.54690277 17.69363315
H 21.51362451 18.97299226 16.91614869
H 20.08400425 17.16728472 19.49780030
H 18.59048090 17.17911744 19.17329446
H 21.16854669 18.98806171 19.50826444
O 20.82347124 18.73226032 20.41949460
O 21.85261404 19.32299156 17.77261255
O 19.45290315 16.81422794 18.87291405
9
i = 0, time = 0.0, E = 0.0;
H 22.56158842 20.33448648 17.19403963
H 21.50978479 18.49547054 18.50492592
H 21.50260698 18.59938754 20.04636415
H 18.81845688 17.78908439 20.81832139
H 19.78009074 17.29668594 19.75471519
H 20.99131377 20.21626445 17.10451742
O 21.81476497 19.72358720 17.25115446
O 21.14225442 18.05523399 19.32036446
O 19.21052587 16.93638609 20.50950911
9
i = 0, time = 0.0, E = 0.0;
H 20.94550400 16.51202234 20.11243971
H 21.52424289 19.41908236 17.05847535
H 21.53856841 18.20524862 17.91895353
H 20.10718227 19.60157778 19.17704826
H 20.08608035 20.02579289 20.69858876
H 21.76261752 15.57271586 19.02481309
O 21.58728569 16.48875813 19.36484945
O 20.94066367 18.91032799 17.61866020
O 19.58917045 19.53001573 20.06176772
9
i = 0, time = 0.0, E = 0.0;
H 18.84536283 19.43824186 17.73029572
H 20.73315109 18.17785135 21.29315569
H 20.06557674 17.84431897 19.86802681
H 22.88566726 18.61650411 18.03565531
H 22.01473342 17.71575743 18.92705031
H 20.35446041 19.14874808 17.88626406
O 19.52718890 19.26648233 18.42896507
O 20.62709001 17.48637630 20.61265717
O 22.02995544 18.07512304 18.01939799
9
i = 0, time = 0.0, E = 0.0;
H 18.79840688 18.19881459 17.85202365
H 20.04068310 19.01234936 21.21202075
H 20.09681890 17.88715291 20.16831451
H 22.34776074 18.75400910 17.39564707
H 22.31272909 18.17922051 18.75341824
H 20.26804549 18.22780240 17.94020815
O 19.46267843 18.69418401 18.35494226
O 20.62414887 18.30061653 20.90973924
O 22.16258512 17.87615441 17.82272576
9
i = 0, time = 0.0, E = 0.0;
H 21.63048918 18.06168342 19.93739086
H 21.12308055 19.53513320 18.39193268
H 22.50977789 19.10489450 18.11088843
H 19.24397395 16.80283308 17.57210507
H 19.70319600 17.58629996 18.80826030
H 20.30555741 18.23753031 20.70094387
O 20.88605629 17.51156183 20.39264960
O 22.00358213 19.68058572 18.74386097
O 19.31871868 17.73746245 17.93830292
9
i = 0, time = 0.0, E = 0.0;
H 20.96520707 17.80831083 17.75868038
H 22.67400740 16.10906484 19.08605216
H 21.48050961 15.15744946 18.75246655
H 20.55858333 19.57772922 20.04978971
H 19.68282850 20.25478918 21.17409201
H 20.64135318 19.17775584 17.28727555
O 20.29675319 18.53332976 17.87925215
O 21.73803309 16.06346765 18.84569034
O 20.07992089 20.41114382 20.31289807
9
i = 0, time = 0.0, E = 0.0;
H 20.30551176 17.48328520 22.69978489
H 20.43986023 16.38926366 18.48720898
H 20.87271515 17.61827268 19.32648887
H 21.59571027 20.14122751 17.17434507
H 20.92541504 18.75936971 17.06546572
H 19.98738504 18.67074523 21.81483601
O 20.67594154 17.96710776 21.88793225
O 20.49092257 17.39163993 18.46106676
O 21.06603163 19.58763461 16.53386614
9
i = 0, time = 0.0, E = 0.0;
H 19.91326271 15.19015847 18.29959020
H 20.35273749 21.09246487 18.54380161
H 21.43217987 20.18316711 19.01467705
H 20.84269851 17.42104963 19.02656546
H 20.14387068 18.48117343 19.70178503
H 21.14723378 15.26412918 19.25573375
O 20.21011876 15.49192117 19.20269491
O 21.29974590 21.14166212 18.90524887
O 20.74159293 18.40289600 18.94666862
9
i = 0, time = 0.0, E = 0.0;
H 19.52355579 15.96130867 17.85981053
H 21.83298703 17.94774475 20.35004376
H 22.79662737 19.06989404 19.82244603
H 20.74131607 19.24108933 18.95925385
H 19.92108462 20.35662758 18.45199933
H 20.08120466 17.45867408 17.89535062
O 20.21624687 16.55078628 18.20859476
O 22.05152910 18.93977980 20.47908759
O 19.91659551 19.39450240 18.39863670
9
i = 0, time = 0.0, E = 0.0;
H 20.73382517 14.04110302 19.09843490
H 20.79617088 20.55231052 18.55926699
H 21.72125529 19.48477746 17.82791448
H 19.43113009 21.16316048 20.22594950
H 18.72828966 21.58964744 18.89337345
H 21.28170441 12.89637577 19.91995397
O 21.56791550 13.72158602 19.47669432
O 21.66646301 20.38344174 18.14947604
O 19.08887884 20.79944364 19.38542671
9
i = 0, time = 0.0, E = 0.0;
H 23.44499420 18.30163439 18.40748932
H 19.13586158 18.38889850 20.28073154
H 17.64565976 18.60704543 19.96051769
H 21.52727339 18.28969493 18.41721656
H 20.46568375 17.18320882 18.24434896
H 23.56963470 19.69600361 17.53625030
O 23.09192027 18.87610341 17.65480362
O 18.25257694 18.14362223 20.61408909
O 20.78365386 17.83817885 18.84844632
9
i = 0, time = 0.0, E = 0.0;
H 21.53901613 15.80692820 19.33833205
H 19.36100327 20.18347510 21.77258335
H 18.96401883 18.84902170 21.31795642
H 21.24811577 19.47777195 18.50184102
H 21.04810857 19.78506079 16.98564266
H 21.88851985 16.59308660 18.00256547
O 21.56506691 15.78130917 18.34484392
O 19.02913043 19.76131788 20.97312830
O 21.64360105 19.30085846 17.60579562
9
i = 0, time = 0.0, E = 0.0;
H 17.77358472 14.70416266 18.57852911
H 22.05698157 20.71983505 19.02393252
H 20.99414201 20.70671556 20.01986871
H 21.24472696 18.22066974 18.38217512
H 22.71689642 18.33269778 18.98070692
H 18.46359834 14.55301731 19.92577420
O 18.54828301 15.04248727 19.04531319
O 21.60099656 21.35262125 19.66931799
O 22.13884965 18.66626010 18.27264051
9
i = 0, time = 0.0, E = 0.0;
H 21.57084759 17.32582510 15.87023374
H 21.40809961 17.20714556 18.64708253
H 20.14081169 18.03398406 18.37705607
H 19.81189064 19.05116629 20.88055883
H 20.15105962 20.60330293 21.11542593
H 22.32317773 18.14094784 17.02698566
O 21.99113693 17.25965904 16.74303654
O 20.66832041 17.67938057 19.13507280
O 19.49283811 19.92542449 21.29777369
9
i = 0, time = 0.0, E = 0.0;
H 19.98854888 18.37667275 20.18302785
H 18.61455762 18.53515355 17.70412624
H 20.07886149 18.59433046 17.90488148
H 21.90976542 17.68485504 19.04446344
H 22.94894381 18.64123682 18.51947355
H 20.49683790 17.89942294 21.53951943
O 20.69967815 17.88124026 20.58511041
O 19.28441651 19.01233624 18.22618181
O 22.25441361 18.01062420 18.17695564
9
i = 0, time = 0.0, E = 0.0;
H 21.14948025 17.71775742 18.25435927
H 22.68991523 19.38198034 19.73586678
H 21.21339390 18.82053019 19.89733966
H 19.02659702 18.75910985 20.10818648
H 19.27848516 18.75219194 18.60767828
H 20.99024634 16.27509686 17.75577236
O 20.51287186 17.14091082 17.77502336
O 22.19609290 18.55424810 19.84212756
O 19.50997430 19.21061718 19.40488528
9
i = 0, time = 0.0, E = 0.0;
H 19.77673862 16.81567006 18.08965497
H 21.63891147 18.70597471 19.55606875
H 21.01624333 17.56191162 20.34629248
H 21.37364780 20.68275332 20.59832739
H 22.38163261 21.29225951 19.59652561
H 18.93658730 15.65519425 17.46504789
O 18.91746086 16.62250527 17.63263941
O 21.25182823 17.79085783 19.42288370
O 22.00078139 20.42896194 19.88506703
9
i = 0, time = 0.0, E = 0.0;
H 20.98942961 17.21194614 18.72649281
H 19.42863092 20.42778181 18.76616228
H 19.43755254 18.97406097 19.17006233
H 23.39275070 18.09667937 19.03779461
H 22.83925172 18.67885695 17.77771364
H 20.35662204 16.83589275 20.01705834
O 20.14974280 17.05194201 19.11445869
O 19.27380685 19.87302882 19.56413540
O 22.66332562 17.94813450 18.39787244
9
i = 0, time = 0.0, E = 0.0;
H 20.47001412 16.15490694 18.33308001
H 20.22943048 19.36651449 19.14445603
H 19.98597880 19.05121875 20.75756920
H 22.38238713 20.19456975 18.03278064
H 21.96126666 18.74076800 18.00138772
H 20.51602417 17.06928549 19.61376019
O 20.91784695 16.31670950 19.14294774
O 19.65577573 18.87972599 19.84490280
O 21.56990172 19.65448959 18.06418621
9
i = 0, time = 0.0, E = 0.0;
H 22.85931358 17.59024675 17.47921323
H 19.36155627 20.70617106 19.74197160
H 19.88953321 19.18188592 19.70243771
H 21.66783943 16.92206269 20.83335010
H 21.17617334 17.11172848 19.39496770
H 21.64581516 18.63016195 17.51792164
O 21.86686838 17.69629179 17.43793596
O 19.35069895 19.87671151 19.23149669
O 20.85947974 17.30532891 20.33303083
9
i = 0, time = 0.0, E = 0.0;
H 21.58404794 17.70678320 21.08807174
H 19.53218540 19.46957633 19.76257326
H 20.11134839 19.49154459 18.47151398
H 19.37631072 17.70129358 16.44656168
H 20.63402353 17.26381369 17.20827627
H 21.93237185 18.33501619 19.87539438
O 22.22130222 17.53655447 20.36363353
O 20.34718056 19.79870016 19.36988165
O 19.72466423 17.55405469 17.38345611
9
i = 0, time = 0.0, E = 0.0;
H 19.56234541 18.31042518 16.94752055
H 19.29454155 19.14539034 20.46144419
H 20.52008311 18.23998000 20.24877088
H 23.20519009 17.92305551 19.15037762
H 21.84941011 18.35911989 18.46816583
H 19.64887868 17.98745103 18.42996758
O 20.24261760 18.11907065 17.62131511
O 19.54432442 18.20061403 20.21092512
O 22.44886127 18.56978881 19.23093482
9
i = 0, time = 0.0, E = 0.0;
H 22.85862514 18.88187175 18.83520993
H 20.76796211 18.68895948 17.86083310
H 19.39938123 18.50293590 17.27224796
H 19.14138323 17.74655826 20.71864578
H 19.96607275 17.61792758 19.40092032
H 21.71659832 18.64770607 19.85954677
O 22.01753063 19.22356777 19.10039030
O 20.11441323 17.97811672 17.53858286
O 20.11837716 17.68019471 20.40900803
9
i = 0, time = 0.0, E = 0.0;
H 20.98655342 16.47223552 16.76692335
H 20.52606591 17.82471886 18.32732826
H 20.01570205 19.07582167 19.01865260
H 21.22352032 19.74956481 20.50472854
H 20.44808770 19.90800687 21.86837570
H 21.76426782 15.59279525 17.77960853
O 20.89940803 15.94459679 17.59265880
O 20.75611998 18.76165292 18.49552184
O 20.52459564 20.26779264 20.93975188
9
i = 0, time = 0.0, E = 0.0;
H 21.03400544 16.97522788 17.62929716
H 19.55441496 18.68140605 19.90132934
H 18.25643310 18.03332886 19.66663334
H 21.83534042 19.86008919 19.61895237
H 21.31277706 20.62315640 20.90521505
H 22.14401069 16.05039251 16.99902004
O 21.95084466 16.96883727 17.26251080
O 19.21246588 17.85568680 19.59446838
O 21.06893094 20.04868316 20.14229723
9
i = 0, time = 0.0, E = 0.0;
H 21.39547976 16.76616787 18.63748867
H 15.82654952 16.00256067 21.61309511
H 17.08249402 16.27891630 22.56142118
H 24.17126407 20.92025202 17.64774910
H 23.01132043 20.52921965 16.86372187
H 22.25299989 17.85261658 19.10080285
O 21.75221746 17.61142738 18.32207934
O 16.59055581 16.59393129 21.78705149
O 23.91447284 20.78590958 16.78279749
9
i = 0, time = 0.0, E = 0.0;
H 21.46443386 15.34292874 18.82045471
H 21.75135072 17.86687474 18.73060458
H 21.82924379 18.83810335 17.63989624
H 20.27223082 19.60023529 19.07630051
H 19.57800059 20.69427916 19.96597630
H 20.10286791 16.06527287 18.88708522
O 21.05153379 16.14950264 19.21070233
O 21.70795362 18.82851229 18.59146603
O 19.41849848 20.00960156 19.29792250
9
i = 0, time = 0.0, E = 0.0;
H 20.14716290 16.61640411 18.45200927
H 22.02859724 18.12716629 19.53850127
H 22.37600894 19.32773796 18.62647159
H 18.92278624 19.67085833 20.12257674
H 20.03013330 19.27038731 19.06041320
H 20.82417875 17.24587569 17.20740838
O 21.07118095 16.74032502 18.07178897
O 21.99660754 19.12581385 19.56861654
O 19.15236344 19.00487397 19.46680086
9
i = 0, time = 0.0, E = 0.0;
H 20.18658442 18.39574164 18.03794565
H 20.95558875 17.76286888 21.39798480
H 20.24871653 17.84823016 20.04460100
H 22.13764501 19.42317729 17.62302946
H 22.03606814 18.61486450 18.97495413
H 18.55480783 18.36327066 17.90192731
O 19.31755695 18.16302129 18.48398955
O 20.96804015 18.19627403 20.58808315
O 21.94775140 18.50228436 17.97382695
9
i = 0, time = 0.0, E = 0.0;
H 18.02855850 16.28922963 19.69666123
H 21.69111933 19.62506628 19.48235070
H 21.89734850 20.88253131 20.38984793
H 21.22945417 17.53909657 17.47481684
H 21.67134838 18.54571501 16.46089364
H 18.53734609 17.75998344 19.85842055
O 18.83338082 16.85565706 19.54133095
O 21.47343553 19.99733960 20.34647677
O 21.99358321 17.99387356 17.19699380
9
i = 0, time = 0.0, E = 0.0;
H 20.22861899 19.19739010 19.88612777
H 22.50820822 16.75287516 19.15383361
H 21.09601421 17.42490582 19.45931654
H 20.83340538 18.57839145 17.86508384
H 20.63596340 19.96814942 17.19714534
H 19.27674486 18.27721248 20.54988071
O 20.24803508 18.40335391 20.48938782
O 21.69867794 17.04530797 18.69075518
O 20.25768242 19.42610004 17.85750656
9
i = 0, time = 0.0, E = 0.0;
H 20.04751239 17.26891490 19.46358610
H 21.38365476 19.28171953 19.32920040
H 20.64677671 20.60082020 19.07719765
H 22.85218025 18.54207704 17.38000383
H 21.84173886 17.32571073 17.56315584
H 18.53107223 17.56321231 19.39423461
O 19.18800817 16.75952120 19.42436151
O 20.82915186 19.90489856 19.78173161
O 22.14162180 18.18617825 17.95151653
9
i = 0, time = 0.0, E = 0.0;
H 19.43498672 15.56753418 18.63188342
H 21.26831344 19.08848471 19.36749590
H 21.11654430 18.45749287 20.65518664
H 22.57215565 20.83056882 17.18144099
H 22.14606777 21.10249320 18.60308913
H 19.50283811 16.77943378 19.48877198
O 18.81700843 16.08567822 19.25277411
O 20.83845135 18.29245988 19.75657630
O 22.45682698 20.39411117 18.03986161
9
i = 0, time = 0.0, E = 0.0;
H 21.70449138 15.45666110 21.03517315
H 19.93027482 20.48792743 17.17664986
H 21.38458315 20.78662907 16.58914629
H 19.64220021 18.87369174 20.78111626
H 19.81771122 19.08958364 19.19738473
H 21.52548435 16.09291171 19.65566872
O 21.82718179 15.24576251 20.10435346
O 20.77847335 20.06727922 16.87447091
O 19.63491776 19.52464360 20.03842758
9
i = 0, time = 0.0, E = 0.0;
H 19.53852366 18.06364014 18.48750425
H 22.62393747 17.80547046 20.59063903
H 21.21968215 17.62880228 19.90915331
H 21.65411839 19.33607928 18.36832328
H 21.06890292 20.10137732 17.27822376
H 18.71855036 18.14869384 19.72802815
O 19.21646746 17.47682057 19.20247293
O 22.18498653 17.79225561 19.75529778
O 20.78752060 19.54991851 18.06409736
9
i = 0, time = 0.0, E = 0.0;
H 20.33589732 18.24864835 18.36628913
H 21.58191265 16.31238238 20.79843566
H 21.42724496 17.33895794 19.78469797
H 19.60068459 21.02950814 18.02372882
H 20.84225254 20.61120825 18.78004258
H 20.10285311 16.95079589 17.52922660
O 20.05461740 17.27839588 18.46152694
O 21.86637873 17.22501420 20.63772248
O 20.32675291 20.35291837 17.99062832
9
i = 0, time = 0.0, E = 0.0;
H 20.83583978 17.64640912 20.26238768
H 20.85879194 20.73871312 19.13130869
H 20.66113046 19.18777434 18.82002438
H 21.19298308 17.30851876 16.45458223
H 20.05475228 18.41376853 16.48785602
H 20.25805770 16.89958407 21.49284645
O 20.81908341 16.79973903 20.71620558
O 20.46683503 19.88886831 19.55415039
O 20.96367599 18.18641645 16.85942944
9
i = 0, time = 0.0, E = 0.0;
H 20.30253799 13.67435601 17.65940405
H 23.50418060 19.83036417 22.05088938
H 22.62304712 20.88609487 21.24478908
H 19.53005370 21.32099027 18.25329879
H 19.00091005 19.97595365 18.77409477
H 20.15344770 15.20418948 18.16700426
O 19.88834236 14.54067741 17.46816080
O 22.76985641 19.93834765 21.37830445
O 19.51247556 20.35207363 18.06277647
9
i = 0, time = 0.0, E = 0.0;
H 20.67726539 18.03285417 20.61603390
H 21.91106762 19.51808129 16.81898106
H 21.53526550 18.13394844 16.08580214
H 19.25194490 18.84511348 19.16048513
H 20.29339504 18.27253023 18.13559304
H 22.06027972 18.41396361 21.26405148
O 21.19506954 18.05205747 21.48579116
O 21.32087859 18.72832917 16.86668266
O 19.61597618 18.03026457 18.81310152
9
i = 0, time = 0.0, E = 0.0;
H 22.15837962 17.36184291 17.88865652
H 19.10515067 17.44282016 19.32068901
H 20.43549039 17.78741044 20.13388617
H 19.36458293 20.93605829 20.48843446
H 19.99720908 20.45086899 19.32534036
H 23.62549835 17.56839630 17.73676571
O 22.78699189 17.66572799 17.26316388
O 19.93828409 17.03807999 19.63664225
O 19.47235559 20.08599486 20.08855012
9
i = 0, time = 0.0, E = 0.0;
H 21.75357252 15.75528941 17.32370763
H 20.30657209 19.76647673 17.41235104
H 20.52992915 19.49802031 18.93702600
H 20.85203933 19.21985154 21.20477919
H 19.47359289 18.49491278 21.19612598
H 21.22086745 17.14985677 17.96740299
O 21.90133198 16.46621627 18.00752809
O 20.42606071 19.03923249 18.05505192
O 19.90487453 19.38912894 20.97947951
9
i = 0, time = 0.0, E = 0.0;
H 20.19065367 17.86040640 19.98077184
H 19.40771078 21.45639535 19.94499600
H 19.10031350 22.43188931 18.81125663
H 22.00281633 16.04837792 18.95415666
H 22.91268226 14.72819213 18.69298900
H 20.75625027 17.89489863 18.59559373
O 21.05931268 17.78025192 19.51087916
O 18.79817122 21.59277792 19.21708054
O 22.36004962 15.48779340 18.25497876
9
i = 0, time = 0.0, E = 0.0;
H 19.67075613 16.95025209 20.33380799
H 21.76907362 17.90765120 19.47213476
H 21.49493862 19.22563920 18.82986695
H 22.78117189 20.12023520 16.91985231
H 21.39681831 19.59367157 16.39025635
H 18.92028406 16.15897362 21.50479398
O 19.18271317 16.10686483 20.59068548
O 21.08834350 18.59837259 19.43159052
O 21.84172551 20.18480305 17.05699873
9
i = 0, time = 0.0, E = 0.0;
H 20.23544411 20.21957135 20.16112271
H 21.25317667 17.09824079 19.00143698
H 22.40386203 17.59537646 19.85042672
H 20.27297936 18.97728599 17.87705205
H 20.50035629 18.35007162 16.40378873
H 20.43439410 18.66406126 20.11495659
O 19.86954442 19.41494063 19.75840934
O 21.53246763 17.13011825 19.96563089
O 20.76954209 18.28524224 17.35787615
9
i = 0, time = 0.0, E = 0.0;
H 22.88872077 20.18031732 19.34328016
H 18.23249452 16.65987307 17.82728097
H 18.98212773 17.94047235 17.40935582
H 21.91734249 17.06168651 19.16957553
H 20.47071586 17.33309995 19.34063933
H 21.47308336 19.43959743 19.43389810
O 21.92975695 20.30377865 19.21575880
O 18.98262622 17.22162007 18.09454290
O 21.33072631 17.44915373 19.82735763
9
i = 0, time = 0.0, E = 0.0;
H 18.60598023 18.72567648 19.47200834
H 22.32335103 18.97744671 19.14576463
H 22.23306952 20.04738405 18.06145129
H 20.53178997 17.24703257 19.15555769
H 21.61231266 16.29318924 18.64180111
H 17.45082876 17.78832268 19.27655595
O 18.25476526 18.09586961 18.81753999
O 22.59056348 19.89900850 18.94224936
O 21.47383611 16.95044019 19.30043128
9
i = 0, time = 0.0, E = 0.0;
H 22.48531701 17.38399876 20.29399621
H 19.32895165 17.00825387 19.09409692
H 19.61277672 18.49972202 18.55639290
H 19.60392284 20.92322725 19.77754853
H 20.09799724 20.73919713 18.37438663
H 21.66958659 17.27679948 19.01985398
O 22.50027357 16.96227804 19.40238308
O 19.76976321 17.52677636 18.34670409
O 20.04653103 20.28286783 19.22525053
9
i = 0, time = 0.0, E = 0.0;
H 19.78381769 18.24976985 20.16800832
H 21.14653101 17.61704859 18.53443831
H 20.23008097 16.22438355 18.84044141
H 22.65167627 19.20692834 17.74543414
H 22.41189093 18.19579117 16.70927895
H 18.91366110 19.45071501 20.10295319
O 19.57957467 19.04854476 20.65962119
O 20.66957612 17.08564385 19.22005104
O 21.92004416 18.81959840 17.28466775
9
i = 0, time = 0.0, E = 0.0;
H 21.89258013 16.06042070 16.48501440
H 18.90705809 23.16426156 20.43474999
H 19.36230526 21.80733634 20.70052174
H 21.35686704 15.90274171 20.44570599
H 21.53057572 16.30405650 18.92758835
H 20.39259774 16.07114781 16.69682142
O 21.25454692 15.78658814 17.17822565
O 19.56668522 22.47535054 20.08126128
O 21.45479693 16.66883122 19.80468637
9
i = 0, time = 0.0, E = 0.0;
H 20.78247069 19.56770628 20.18905945
H 20.03881372 16.11281393 19.30012619
H 20.06972701 17.69161869 19.56100639
H 21.38530774 17.99567363 17.67225641
H 22.54821962 18.82780223 17.75945396
H 19.28192644 19.50216530 19.77640419
O 19.92404749 19.12913237 20.37932459
O 20.63427168 16.87638334 19.21521007
O 21.67584497 18.90082029 17.43385842
9
i = 0, time = 0.0, E = 0.0;
H 21.61649503 18.96407925 19.30655963
H 19.14261928 19.11068405 18.47764424
H 18.03326866 20.16379918 18.29442618
H 23.24548812 15.88398134 19.40138772
H 23.37431917 16.99065752 18.34130710
H 20.87979571 18.07932212 20.37704825
O 20.74942442 18.83768732 19.75738062
O 18.28339193 19.24724649 18.01415037
O 23.06365138 16.85323534 19.26063815
9
i = 0, time = 0.0, E = 0.0;
H 20.32705684 15.57910485 17.36558653
H 20.37525955 19.90975641 21.47120120
H 21.04138779 19.64670323 20.10757660
H 20.48055984 17.81511380 18.12823182
H 19.38009462 18.88523076 17.96366014
H 21.31247759 15.80851847 18.39470187
O 20.97621234 16.27715056 17.57939714
O 21.20270580 20.11970128 20.94400615
O 20.13019729 18.63885343 18.55711601
9
i = 0, time = 0.0, E = 0.0;
H 18.58118568 17.92819446 17.92534256
H 21.50524273 20.06710140 19.08440003
H 21.67141187 18.51653321 19.30768006
H 22.51008715 16.03823120 18.74905439
H 23.28064001 16.73357993 19.85324833
H 19.27342278 19.10792642 18.72864971
O 18.44277923 18.83058913 18.17001739
O 21.21464552 19.32237931 19.60988474
O 22.40565062 16.83566414 19.28691904
9
i = 0, time = 0.0, E = 0.0;
H 20.30882945 19.23327148 19.57876967
H 22.15359295 17.87942195 19.08679156
H 22.50427434 16.51697750 18.27249632
H 19.90382911 17.57054628 18.37446169
H 19.16236395 18.61020953 17.64774822
H 20.74487068 19.98576242 20.80745407
O 21.15874391 19.47572184 20.08717010
O 21.82702113 17.15665624 18.42208863
O 19.20610487 18.26775775 18.55004314
9
i = 0, time = 0.0, E = 0.0;
H 20.99149467 16.04451031 18.08033274
H 19.88946197 18.97805238 19.89840858
H 20.99286633 18.43322360 20.89202843
H 20.71773359 18.85918668 18.21074258
H 20.24210961 20.16531311 17.59202343
H 21.09851713 17.08215199 19.25437505
O 21.25576140 16.95693265 18.28260873
O 20.24090750 18.13859007 20.37733677
O 20.74847568 19.81934035 18.38926383
9
i = 0, time = 0.0, E = 0.0;
H 20.34595810 19.07661236 18.24412701
H 19.49918700 17.07273755 20.42888203
H 20.25234159 17.02307679 19.00671904
H 22.76703977 19.06532889 19.28002504
H 21.95824779 19.94851855 20.15546768
H 19.87549401 18.44859152 16.81772351
O 19.79582079 18.37054378 17.83484241
O 20.36903626 16.75091631 19.98409046
O 22.03202119 19.72583582 19.22995932
9
i = 0, time = 0.0, E = 0.0;
H 21.51784144 17.87796455 16.68152973
H 18.51728985 19.76647249 19.31335018
H 18.20688712 19.23643531 20.72851992
H 21.32980025 17.29712440 20.51278451
H 20.54888154 18.54165762 19.96193636
H 21.95763744 17.92323524 18.03518935
O 22.36035729 17.71695492 17.18466060
O 18.97120450 19.41033894 20.10812836
O 21.03038237 17.71949651 19.67417510
9
i = 0, time = 0.0, E = 0.0;
H 19.37423890 17.68149051 18.46490351
H 21.87332253 17.66267444 19.07714899
H 22.76931143 17.75330113 20.34624680
H 19.27120586 19.72054170 20.10996454
H 20.70662669 19.72192915 19.84206700
H 19.85299346 17.26585585 17.09290701
O 19.90346204 16.97944074 18.05420892
O 22.45631646 18.24575534 19.59948824
O 19.89068894 19.67433468 19.33217260
9
i = 0, time = 0.0, E = 0.0;
H 21.79130966 18.87504857 16.92455887
H 20.64145623 15.39772388 20.10898609
H 20.64903760 16.83081497 20.72267339
H 19.76464584 18.42772036 19.23439223
H 20.34403393 19.69252809 18.82931184
H 22.69386123 18.79766766 18.13726762
O 21.99523281 19.31988124 17.76849320
O 20.48482704 16.32213448 19.86799513
O 19.64209089 19.36993228 19.41087630
9
i = 0, time = 0.0, E = 0.0;
H 18.61956832 18.69690206 18.34222149
H 21.87638884 19.01461403 20.13273193
H 21.63841293 20.43756635 20.62220281
H 22.35402313 17.15228190 18.19145689
H 20.87968661 16.77609862 18.55784123
H 19.56947336 19.25721733 19.54712793
O 19.15064423 18.44705525 19.15673171
O 21.39917409 19.80533485 19.91090938
O 21.63198399 16.55081473 17.88922519
9
i = 0, time = 0.0, E = 0.0;
H 18.87320424 15.96567307 19.10145817
H 19.67506499 17.91177902 20.32945590
H 19.83943777 19.27107181 21.10363340
H 22.76378168 19.57532393 17.39969879
H 23.88575491 20.41058959 16.78681071
H 17.86349667 16.53848082 19.96352366
O 18.64134830 16.78550415 19.55702390
O 20.34760605 18.52818829 20.77596913
O 23.32117522 19.59420994 16.66854312
9
i = 0, time = 0.0, E = 0.0;
H 21.60851584 15.84899033 19.99220880
H 19.98078295 19.65519266 19.19681841
H 18.91513316 20.64959642 19.87033829
H 21.22293678 17.94736972 18.31751795
H 21.65374882 19.30038693 17.69770126
H 22.71853433 15.86387281 18.88370903
O 21.89371537 16.32078060 19.18452987
O 19.41216347 19.84221975 19.98397184
O 20.80270671 18.77057675 17.87879336
9
i = 0, time = 0.0, E = 0.0;
H 17.12966336 18.35962628 17.16639691
H 23.66129912 18.02406696 21.47437599
H 22.78385177 18.22978727 20.31358878
H 22.82848854 19.85396988 18.12846116
H 22.03423334 20.26675827 19.50922841
H 17.53605381 16.95984833 17.63260759
O 17.02576155 17.46724042 16.88922346
O 22.73184652 17.80200968 21.22319824
O 22.35891984 19.51131259 18.91809134
9
i = 0, time = 0.0, E = 0.0;
H 20.49551217 17.20200848 18.58904452
H 21.42792328 17.28073534 20.81071385
H 21.94053119 18.07413942 19.67240011
H 21.06699961 20.73848008 18.78711963
H 20.22208374 19.39330508 18.69991663
H 19.13938535 17.72638531 18.09930783
O 20.01871908 17.58374918 17.77545567
O 21.68477112 17.16473498 19.91592995
O 20.51895711 20.11266076 19.31179354
9
i = 0, time = 0.0, E = 0.0;
H 22.24972044 16.02218181 20.56633723
H 20.28551436 17.85080581 19.91143214
H 19.90756494 18.78021457 18.72359152
H 21.81364777 19.67465554 17.19593639
H 20.74653750 20.73570013 17.12358040
H 21.05758166 15.76007800 19.79119290
O 21.55820285 16.53272828 20.12328534
O 19.69639847 18.62358618 19.64353113
O 20.85644674 19.80509604 17.32119322
9
i = 0, time = 0.0, E = 0.0;
H 20.30007617 18.32394871 18.13861979
H 22.33239764 15.02587183 17.53903521
H 22.68749579 15.99152721 18.72943846
H 18.49363496 20.47490059 19.85375014
H 19.85879987 19.76476524 19.91754994
H 21.14140170 19.64448090 17.97779810
O 20.99971933 18.91420722 18.56402798
O 21.90346853 15.64500703 18.21431921
O 19.28641102 20.37687757 20.38248743
9
i = 0, time = 0.0, E = 0.0;
H 21.45345121 17.23149808 19.68968140
H 19.20085272 19.59286392 20.52138682
H 18.12912768 18.45187141 20.98971898
H 23.20567433 19.38041776 18.43782728
H 22.09705627 18.29165315 18.06847300