24
i = 0, time = 0.0, E = 0.0;
H 20.16155048 22.72128726 21.06789592
H 18.45753067 21.59629896 19.83957353
H 17.27773086 21.55379940 18.77990353
H 16.89588504 19.50364384 20.11568662
H 16.77331082 19.55446493 21.59943899
H 21.76217789 17.60130963 22.11679173
H 23.17998110 17.91052169 22.69843479
H 17.30509085 21.35316892 21.56270971
H 17.43316215 21.35271205 23.11966098
H 18.99444594 19.92747747 18.51207267
H 20.57386341 19.92086471 18.34633599
H 18.32300483 18.22183356 21.02620780
H 19.54784473 18.10481434 20.07363515
H 19.50408512 19.40175912 21.88844643
H 20.61707094 19.59798191 22.81603268
H 19.84003035 21.15146443 21.42122365
O 19.73711356 21.89324483 20.68237849
O 17.65081529 21.05453648 19.57580712
O 16.76071339 18.87301604 20.89361110
O 22.20817130 17.93561140 22.91804762
O 16.81465657 21.50400186 22.38671399
O 19.78324707 19.36474928 18.26677164
O 19.31946285 18.01944754 21.04975367
O 19.82644106 20.11020946 22.44816781
24
i = 0, time = 0.0, E = 0.0;
H 17.73987250 22.12001203 23.12691962
H 18.14714905 20.84885625 20.90221594
H 18.95211492 20.08957313 19.88249081
H 17.19913207 18.64125486 20.23535684
H 17.30499345 17.68654905 21.45600695
H 19.92905225 21.98560085 20.26945257
H 21.01404392 21.10226317 19.73952295
H 16.79374433 19.88388258 22.79394008
H 15.94918231 18.68403988 23.52580557
H 20.58271932 19.09249175 18.94064731
H 20.62150446 20.27508764 17.82657688
H 19.97739232 18.83450084 21.40988850
H 19.11666769 17.84487002 20.46757972
H 21.09336479 20.39418638 23.25751130
H 20.79596463 20.87216663 21.79916512
H 18.95673484 21.05876211 22.83576163
O 17.95541609 21.23637293 22.75604703
O 18.09546893 20.57386580 19.92565982
O 17.35421283 17.64853593 20.43169639
O 20.85597996 21.77551255 20.45744031
O 16.45905967 18.97182479 22.72920896
O 21.15617748 19.79054707 18.53625485
O 19.99085359 18.36143784 20.56066822
O 20.38926958 20.40045641 22.60472027
24
i = 0, time = 0.0, E = 0.0;
H 17.86026985 22.16144915 21.30577712
H 19.61581049 17.97459513 21.34106469
H 18.41969914 18.44486242 20.36243123
H 15.98483320 18.59651704 20.17177043
H 16.41725056 19.51378067 21.28166162
H 19.28524332 20.68422440 18.64677298
H 20.69676496 20.16556003 19.01129323
H 16.36204131 21.06839111 22.69867015
H 15.35346949 20.04022067 23.34918040
H 22.00859095 18.54790918 18.49596722
H 20.61256554 18.35422760 19.21581337
H 20.72803557 18.55235277 23.94811004
H 21.88624216 18.57752506 22.86006498
H 20.32862225 21.15206070 20.77878072
H 20.37729362 20.23836575 22.23366013
H 18.86440578 21.90892545 22.36797346
O 17.85601942 22.10625963 22.30727875
O 19.38296591 18.12865871 20.42699228
O 16.85116671 18.94719382 20.51044519
O 20.13035050 20.99314897 19.03462949
O 15.69913675 20.30917424 22.52727470
O 21.05484864 18.78678711 18.42621365
O 20.91976447 18.55324225 22.96569593
O 20.32265048 21.15038931 21.82835799
24
i = 0, time = 0.0, E = 0.0;
H 17.29540809 21.26533322 22.88297613
H 18.10548003 21.32382009 20.45045055
H 17.83186938 20.45114719 19.26326032
H 17.23689318 18.39866178 18.53734951
H 16.94514870 18.49585320 20.08943419
H 22.19175904 22.32367437 20.00941669
H 21.56382360 20.99555188 20.13305403
H 16.70960387 18.79764278 22.24928369
H 17.64008384 17.52408880 21.94215010
H 20.53520163 19.45381447 18.82832641
H 19.69385534 20.20801081 19.83016654
H 19.93737791 17.24341142 22.26541813
H 20.03559556 18.38932926 21.31004861
H 20.98703329 21.48984039 22.13342547
H 20.70902780 22.07587282 23.51458442
H 18.56445088 20.41834302 22.44746278
O 17.56539884 20.45159023 22.45696948
O 18.49666155 21.16781343 19.59370886
O 16.97066923 18.99679478 19.23467700
O 22.04451895 21.65946725 20.63459546
O 16.71526806 17.86753000 21.89996253
O 20.49295936 19.60752837 19.77159302
O 19.41997165 17.69807702 21.64041671
O 20.43701773 21.34501566 22.93245114
24
i = 0, time = 0.0, E = 0.0;
H 17.60258896 22.18395475 20.75084365
H 18.85933062 20.43847260 19.68939463
H 18.22916334 19.77781465 18.47021897
H 16.64373145 17.20287067 22.60214762
H 16.28462776 18.77243305 22.36209411
H 21.90728407 20.61237962 19.66870584
H 21.17331774 21.78996678 19.13540300
H 16.20856177 20.91203750 22.23406745
H 14.87243645 20.53463446 21.46357498
H 21.45629279 18.43779403 20.50612608
H 20.58424747 19.03341178 19.40167630
H 18.98772139 18.11571896 21.50583503
H 19.87107157 17.74656107 22.68032542
H 20.72146230 21.08399107 21.67452160
H 20.13141807 19.65263325 22.23902937
H 18.55707924 20.96644992 21.56790235
O 17.69703269 21.21651833 21.02823104
O 19.05941517 19.81060377 18.92293432
O 17.04486869 18.08448102 22.29890946
O 21.73953240 21.54989424 19.88699981
O 15.27466704 20.46705632 22.34476976
O 21.54246852 18.84486979 19.59246249
O 19.94866132 18.19100520 21.78430056
O 20.08104830 20.72977041 22.30166780
24
i = 0, time = 0.0, E = 0.0;
H 17.86839353 21.83337606 20.71787676
H 19.14107902 18.01873631 20.68962892
H 18.55838767 17.36400506 19.41879867
H 18.12301050 16.75086578 22.45749589
H 18.07292722 18.41148203 22.50013891
H 20.42282527 22.46886074 19.76687605
H 19.22411648 21.53322274 19.36092293
H 18.09211073 20.42580024 22.90939641
H 17.17428440 20.39680567 21.64452281
H 17.78419385 20.01207822 17.64075666
H 18.96392821 19.76407298 18.62464406
H 20.76130458 18.02635920 22.73053601
H 21.43465007 18.09212638 21.38967739
H 20.62812017 20.22034744 22.64495120
H 20.29805778 21.36738139 21.70333675
H 16.82064922 21.15775230 19.69385774
O 16.95052964 21.48241630 20.63089659
O 19.21138671 18.04782340 19.65481188
O 18.69953649 17.56731484 22.35558033
O 19.71124249 21.88881202 20.12011569
O 17.48118006 19.83168808 22.50588836
O 18.54853202 20.54047990 18.13088662
O 21.51450573 18.52573021 22.26287116
O 20.19028062 21.09926461 22.62891501
24
i = 0, time = 0.0, E = 0.0;
H 17.03280221 21.33024908 21.16280806
H 17.63722291 19.57325004 17.95742898
H 17.79217385 19.15739227 19.50207085
H 17.95458450 16.96052122 20.37004981
H 17.71937811 17.86576684 21.46419522
H 21.23700868 22.64420606 19.37649380
H 21.25604979 21.09155848 19.76651647
H 15.84646299 18.59381762 23.05789011
H 16.85216429 19.75308960 22.64991451
H 20.41745762 19.13082638 20.29064290
H 19.49780130 19.86419254 19.27755556
H 20.83976778 17.82569021 22.94059396
H 21.55643658 17.22230781 21.73027003
H 20.40604272 21.71298104 21.55261004
H 20.55907634 21.15436472 22.90965161
H 17.98005007 21.70240871 22.25622688
O 17.02400059 21.68419000 22.07345744
O 18.14964330 19.75925172 18.79624818
O 17.50272058 17.74972233 20.50934739
O 21.47521528 22.07459539 20.12169531
O 16.80591800 18.76377533 22.82783396
O 20.47728481 19.73840935 19.58853445
O 20.98398832 17.94961993 21.97515500
O 19.81178232 21.28038728 22.24827995
24
i = 0, time = 0.0, E = 0.0;
H 18.81149085 21.16359664 22.37915953
H 18.37446594 20.85437513 20.07974037
H 17.55265070 21.01542756 18.84481858
H 17.31482271 19.03378427 20.15235661
H 16.51594369 18.55801062 21.38165442
H 20.55946617 21.45987951 19.76987906
H 21.50766232 20.30024967 19.98645463
H 16.38890628 20.48621384 22.49228303
H 15.43200240 19.67776510 23.39730948
H 21.50388357 18.44378479 18.52561280
H 20.77879253 18.17468522 20.00601323
H 20.01506925 18.34938268 22.19022863
H 18.82137525 17.85038574 21.32522801
H 21.09679815 21.01982307 21.74944877
H 21.23694900 20.66180011 23.26409194
H 17.99169014 22.46658488 22.08517207
O 17.95594728 21.49622540 21.93182382
O 18.35273177 20.55947436 19.15587998
O 17.14593430 18.26506126 20.71185062
O 21.41000472 21.31292331 20.24283297
O 15.56297700 19.98773672 22.50108406
O 21.45307454 18.68237034 19.49737485
O 19.79005934 17.80001483 21.45336827
O 20.60282508 20.64834268 22.56036621
24
i = 0, time = 0.0, E = 0.0;
H 20.69036318 22.02529912 21.68805541
H 19.18464304 19.06074093 20.48913661
H 18.75906916 20.16859778 19.49961457
H 15.89032091 19.21463627 20.15243830
H 16.67572101 20.25530573 21.16650366
H 22.41189034 20.92473787 20.02429229
H 21.12918166 20.41972616 20.12265936
H 16.98153069 22.45033376 22.11683159
H 18.41996505 21.92089494 22.00227837
H 19.80312490 17.66588810 16.57839654
H 19.17184720 17.88079795 17.98432533
H 17.72662801 18.20402047 21.48565566
H 18.53616019 17.00603720 21.89199414
H 18.67775609 20.11276253 24.18937734
H 19.31510334 19.10560528 23.24539834
H 20.37655504 21.37257374 23.09236489
O 20.13101534 22.14793665 22.52189029
O 19.42259095 19.45704358 19.60191951
O 16.39835507 19.27040739 21.01379686
O 21.61745926 21.04275175 20.60865397
O 17.48558820 21.81773907 21.54963670
O 18.99945466 17.42214835 17.15453710
O 18.67806047 17.93707644 21.76840323
O 19.55061357 19.76590328 23.95545872
24
i = 0, time = 0.0, E = 0.0;
H 17.72466288 21.72808744 19.13834671
H 17.46949833 19.30926815 20.21663973
H 16.84783769 19.42954924 21.60855905
H 15.66430184 20.56087573 23.41710066
H 17.20032843 20.27001683 23.68414051
H 21.47825619 19.07083437 18.80041297
H 22.61482874 19.41743837 19.88735968
H 19.28394859 19.18418757 23.42461612
H 19.30638024 19.00106520 24.92186763
H 19.93434545 19.05977129 17.07033272
H 19.52983797 20.33557736 17.92781872
H 20.87777968 18.51075752 21.10053607
H 19.23799952 18.66312306 21.01378540
H 19.46740970 20.63710273 22.03014778
H 18.20868072 21.49558560 22.53038452
H 18.74158686 21.45283758 20.21284132
O 18.47197658 21.13802093 19.33387908
O 17.01542435 18.76947775 20.84886055
O 16.55415942 20.64488984 23.00507837
O 22.03519608 18.71640615 19.57440000
O 18.75961023 19.38350732 24.20779644
O 20.33398113 19.82614990 17.60651268
O 20.03475722 18.80042459 21.51409731
O 19.08825033 21.56082709 22.00456628
24
i = 0, time = 0.0, E = 0.0;
H 17.31270465 22.28168800 20.44202532
H 18.15825979 19.51412644 20.69796398
H 17.81292829 18.02159665 20.29020701
H 15.90669205 18.25402580 21.04980378
H 15.02329341 18.64077165 19.86933795
H 20.67166307 21.60872895 21.65560365
H 20.63862307 21.37114675 20.11940866
H 16.51660212 20.73525872 21.90094540
H 15.37166561 20.38627146 22.96411901
H 22.34820566 20.53276094 19.24115508
H 21.30992035 19.41314049 19.84000716
H 19.94764808 18.43548475 21.21309824
H 21.07686148 17.34585830 21.32540036
H 22.74208716 20.43603271 23.11816000
H 21.65818302 19.46271464 22.49926131
H 18.68309843 21.74996344 20.92351597
O 17.69684589 21.50088749 20.87253826
O 18.49457290 18.59041090 20.70294991
O 15.67025924 17.92113605 20.16651026
O 20.15428104 21.89160248 20.87545686
O 15.89492916 19.98314674 22.21878710
O 21.44922925 20.19866605 19.16707996
O 20.98162873 18.31961930 21.37524900
O 21.85138538 20.43023439 22.70621597
24
i = 0, time = 0.0, E = 0.0;
H 19.29038548 20.93994925 20.51041338
H 19.08057076 16.67099777 19.69648904
H 18.46226358 18.05364444 19.22890497
H 16.72832863 19.36356718 18.67698871
H 17.08509040 18.86833492 17.20889010
H 21.70124743 20.08022976 21.48524346
H 22.71877963 20.97400292 22.15366457
H 15.21839938 20.29389480 20.36218605
H 16.89314565 20.57551081 20.58557599
H 20.99077073 18.21912102 21.80473434
H 20.77703570 18.24861986 20.26355268
H 18.51701222 19.82471282 22.60583301
H 17.98427458 18.57730720 23.40005507
H 20.55356223 22.04597887 22.68549063
H 19.41700175 22.30739676 23.69332624
H 18.86422731 21.62307748 21.84557850
O 18.54061667 20.89375561 21.18568487
O 19.12337435 17.63981547 19.77477928
O 17.01801256 18.58658223 18.13734348
O 21.79054900 21.01590394 21.84942881
O 16.13149251 20.44172214 19.93106392
O 21.46851584 18.39542050 20.97689798
O 18.49680107 19.38973847 23.48928229
O 19.68024257 22.56873415 22.79972480
24
i = 0, time = 0.0, E = 0.0;
H 18.80537888 22.39868745 19.13221968
H 18.29899570 20.01529398 18.81113266
H 17.66367272 19.03528556 19.73759607
H 16.59710608 20.27959682 23.70356816
H 16.55995873 20.04925226 22.28578926
H 23.12623960 20.19389146 20.37761217
H 22.24654859 19.12523406 20.67413455
H 15.39132821 20.82508582 19.96149033
H 16.79670469 21.05263851 20.22224012
H 20.09326866 18.24778764 21.12821107
H 19.81963360 18.40334911 19.67194400
H 20.16326832 19.15798753 23.79134372
H 18.72836848 18.77484195 23.34613299
H 21.00935102 20.76166325 21.09161039
H 19.78412053 20.25610792 21.94574970
H 18.94792761 21.36878662 20.25963534
O 18.24465768 21.65470860 19.53307662
O 18.23591490 19.04431619 18.93722348
O 16.82615564 19.53918149 23.08729611
O 22.62441766 19.90709793 21.13042809
O 16.02801069 20.69158578 20.63490480
O 20.56727419 18.21510990 20.27237812
O 19.66107463 18.64448860 23.15313126
O 20.07786430 21.02858497 21.39995779
24
i = 0, time = 0.0, E = 0.0;
H 18.54325090 22.08569808 20.62154153
H 19.32888917 19.12433199 19.30922881
H 18.16953450 18.26682637 19.79819303
H 15.74989347 17.32390412 21.30570818
H 16.11181395 18.84193153 21.42256179
H 18.90740522 21.24963854 18.43980645
H 20.24130332 21.10830845 19.20252771
H 17.02460659 21.39507777 21.99757531
H 15.96864450 20.73633145 23.02136671
H 21.86315016 19.76874476 20.77878968
H 23.05387263 20.64026291 20.55718540
H 20.23205334 17.97157724 20.62206332
H 21.46290792 17.43854923 21.69895246
H 18.67317742 19.62562765 23.20713023
H 20.14474602 19.59477192 22.71041634
H 18.80558458 21.71023085 22.10111553
O 18.37595968 22.38982484 21.55791744
O 19.07309274 18.16215865 19.52121312
O 16.21937741 18.01980336 20.81085013
O 19.30629940 20.97484661 19.27713218
O 16.60516381 20.49562820 22.28832647
O 22.12930772 20.49087020 20.19360222
O 21.05054867 18.19765730 21.24275299
O 19.48993464 20.18730804 23.21541271
24
i = 0, time = 0.0, E = 0.0;
H 17.34851595 18.56277528 18.81586354
H 19.86543515 17.00120449 21.10752672
H 18.64434972 17.50294961 21.97884928
H 16.54581079 17.78977175 22.25733752
H 16.91457244 17.30569643 23.63731390
H 21.66748003 22.13411899 18.64014084
H 20.39734953 21.61000626 19.35663068
H 14.73059898 19.62597537 21.17296110
H 16.24415805 19.40306220 20.68746605
H 21.31490844 19.82013840 20.33886807
H 20.32349417 19.19666077 21.45235707
H 21.08541662 21.11201497 22.28645061
H 21.68516786 22.45794185 22.58860065
H 18.43258255 22.14444670 20.42920066
H 19.76529930 22.31440970 21.29295559
H 18.19913387 18.76593480 20.16572328
O 17.56291201 19.20590545 19.54148676
O 19.31399629 17.77830151 21.30284349
O 17.30848305 17.41162478 22.75322904
O 21.16780311 21.24944922 18.78081058
O 15.54477459 19.08487844 21.30123037
O 21.19902695 19.67343118 21.37278132
O 20.82221716 22.02939471 22.72819736
O 19.40081862 22.49359893 20.36354344
24
i = 0, time = 0.0, E = 0.0;
H 17.14759763 22.02842560 21.27736814
H 17.88177499 19.72805481 20.35797280
H 18.09326244 18.24336129 19.75776698
H 16.17960913 17.79558097 21.83034866
H 16.21227621 16.55326932 20.95283304
H 22.31582223 22.56529256 20.18012925
H 21.79063810 21.30901161 19.45437872
H 16.40223243 20.00896035 22.70016014
H 15.64268988 19.44985395 24.01428882
H 20.91598605 19.01813370 17.79631911
H 19.97182140 19.91540167 18.41943313
H 20.01742224 18.86786449 21.41404286
H 21.46361010 19.15090239 21.13586010
H 20.51009788 21.55149856 21.49358997
H 20.10334365 20.88828499 22.69278246
H 18.47964742 21.16742067 21.63526731
O 17.43103585 21.14558561 21.55282619
O 18.56461553 19.04883513 20.08868065
O 16.66717134 17.39776248 21.09318386
O 22.35962632 21.57912867 20.21221844
O 15.69929131 19.32992097 22.98305471
O 20.93092409 19.86877716 18.29395903
O 20.86014383 18.80059697 21.83023769
O 19.80951949 21.66183612 22.15899543
24
i = 0, time = 0.0, E = 0.0;
H 17.68012867 22.71729772 21.88461906
H 16.71962692 20.90647892 20.62896269
H 16.91526557 19.48155164 20.81905627
H 18.21212206 18.04306507 22.40176129
H 18.54232151 16.66067424 22.76767822
H 21.55521527 19.11076699 21.03918414
H 22.59399459 20.09358161 21.62400773
H 17.56731563 19.75355037 24.02557779
H 18.39304059 20.48858924 22.87694959
H 19.53338075 19.41642578 19.28250875
H 18.30353137 20.33766171 18.97093211
H 19.66141231 17.82641619 21.19641236
H 20.46428698 17.12708538 20.11552149
H 20.70561360 21.46483508 21.06392290
H 19.93651308 21.48187049 19.72320257
H 18.87300135 21.98781571 21.15678884
O 17.92832560 21.84675525 21.55167304
O 16.50699259 20.09786332 20.13159807
O 18.28675729 17.13608508 21.98809322
O 21.63820760 19.96164235 21.42837808
O 18.15763444 19.56694908 23.22800831
O 19.23224410 20.19289990 18.74865585
O 20.23231622 18.06166606 20.37504638
O 20.18051680 22.05323736 20.48041914
24
i = 0, time = 0.0, E = 0.0;
H 17.11100558 21.06453255 18.49917357
H 18.69674783 19.29282217 19.25657912
H 18.63415495 18.23375487 20.34684574
H 17.70848390 16.93469482 22.40329428
H 17.34504673 18.44875471 22.09968350
H 21.85062256 22.52683646 20.15785322
H 21.29143986 21.03317290 20.32157212
H 16.42073652 19.84957008 20.98189138
H 17.24917119 20.63882549 22.05099769
H 21.99920310 18.61563917 20.37365927
H 20.59393905 19.16331455 20.20056539
H 20.78065147 19.50419879 22.45403302
H 19.55424100 18.58429563 22.52948852
H 19.42356657 22.08589055 21.32769744
H 19.27464642 20.81141565 22.23439771
H 17.71220193 21.01673967 19.87480794
O 17.25229960 20.41022909 19.24194040
O 19.21237696 18.56633573 19.63388590
O 17.99460651 17.71479831 21.92423208
O 20.98563660 22.03530917 20.24281392
O 16.46597448 20.01250674 21.95246669
O 21.48810562 19.41059391 20.62546715
O 19.99304256 19.31966900 23.01941104
O 18.77163980 21.39052502 21.57293890
24
i = 0, time = 0.0, E = 0.0;
H 16.65197598 22.53115830 21.73681991
H 18.81928648 19.63142557 19.86466373
H 18.36514857 18.30004714 19.55972096
H 16.47379576 17.89728956 21.19974433
H 16.85359092 16.52491374 20.64215060
H 21.39828916 20.19293840 19.53461342
H 21.86501292 21.63834194 19.50598265
H 16.04529914 20.24222134 21.81019859
H 14.82482086 19.56269246 21.29604628
H 20.51587330 18.45890003 19.16244817
H 21.75590930 17.77194543 19.69217359
H 21.45172692 19.15128541 23.40531034
H 20.51312675 20.10542537 24.25463044
H 20.30824877 21.73200474 21.16048142
H 19.98915606 21.31953054 22.60804620
H 17.89959283 21.65932828 21.89659067
O 16.84336627 21.58710481 21.79599555
O 18.88850118 19.02587753 19.16399198
O 17.25866107 17.39844202 20.73177951
O 21.30877175 21.02898654 20.04606579
O 15.59386082 19.34205767 21.87452844
O 21.50853011 18.47974828 19.05157794
O 21.16624688 20.09561030 23.47930066
O 19.71639691 21.97049968 21.93023138
24
i = 0, time = 0.0, E = 0.0;
H 17.74950905 21.48330450 22.34850275
H 18.08701729 20.84492262 20.02155825
H 17.43696783 21.07501345 18.59137152
H 16.60855730 18.09059228 21.13388012
H 17.48517573 18.46815452 19.93993518
H 21.92106773 18.51445472 21.02020735
H 21.72599161 19.51517829 19.88724463
H 15.49635274 18.78211240 23.47349725
H 16.90742089 19.23283056 23.26360536
H 20.56760042 19.47504220 17.29129578
H 19.66042917 20.06121845 18.38458580
H 19.55805041 19.32332654 22.58722192
H 18.66499076 18.21539594 21.95987034
H 21.54499023 21.10249162 21.71854134
H 21.02105670 22.40001047 21.15152503
H 19.24398878 21.82448707 22.11145465
O 18.46592596 21.34032454 21.72720587
O 17.87136892 20.36798148 19.14573135
O 17.35627122 17.73497148 20.61369350
O 21.98680595 19.44644577 20.84286138
O 15.97659376 19.46189477 22.94954143
O 20.59136188 20.00485606 18.10132593
O 19.00971148 18.56860154 22.82851729
O 21.02955232 21.89683201 22.01865954
24
i = 0, time = 0.0, E = 0.0;
H 17.89946552 22.87890869 22.41848986
H 18.46131314 21.85009500 19.91068480
H 19.92046707 21.98601590 19.36510287
H 17.27317361 17.38755216 22.99198437
H 17.11453102 18.73619815 22.11805528
H 23.16476150 19.97586187 20.71091073
H 21.79916479 19.11030613 20.72648324
H 16.35998813 20.95548733 22.40690766
H 15.05561321 20.27046388 22.43832593
H 20.23572921 19.00199305 18.43853663
H 18.96356571 19.74472957 18.82724392
H 19.81468591 17.97907782 20.41251948
H 19.45985539 17.75132111 21.77708694
H 20.65297768 20.85294842 21.30577581
H 19.81422353 19.59902491 21.88967288
H 18.53269998 21.43511163 22.15411133
O 17.82632694 22.03426534 21.90898275
O 19.06656686 21.54515772 19.17152790
O 17.60004781 17.89616519 22.25105979
O 22.30446730 19.81668535 20.21695531
O 15.97075515 20.08216706 22.63843507
O 19.31784985 18.80537236 18.65383831
O 20.25567874 17.97515135 21.29234191
O 19.89278343 20.59722569 21.90490495
24
i = 0, time = 0.0, E = 0.0;
H 18.11027100 21.74703416 18.74899374
H 18.27609758 19.14604000 19.28412469
H 17.93076625 17.84506838 18.51531031
H 17.51520235 17.83080226 20.70255048
H 16.81661904 18.77029182 21.79444062
H 22.62131527 21.95648510 19.84890780
H 22.04186143 20.65715129 20.49373696
H 16.67540251 20.55790937 20.80959776
H 16.22081186 21.20778300 22.16002459
H 21.21586393 18.82272920 21.89448871
H 20.65878299 18.56373360 20.53222635
H 19.07494726 19.13822100 24.11844673
H 18.75826827 18.55282736 22.67814252
H 20.27463431 21.67530518 21.35506556
H 19.41767096 20.68979751 22.14318825
H 18.65732186 21.22769585 20.17463466
O 18.23423828 20.97578196 19.24924326
O 18.38917072 18.14564866 19.34612987
O 17.31503813 17.96608004 21.66951490
O 21.98898701 21.62501717 20.53755807
O 16.12071664 20.44610210 21.59698241
O 21.39653376 19.05873339 20.94961511
O 19.44762727 19.07395908 23.23332568
O 19.35831713 21.53182397 21.62188182
24
i = 0, time = 0.0, E = 0.0;
H 17.17137231 21.98391953 20.47729632
H 18.83365908 18.65352849 20.58005740
H 17.89922353 19.92930104 20.33064800
H 16.99896897 17.77340576 22.93433728
H 17.71906806 16.42875649 23.26100724
H 22.87692164 21.94290632 19.65300389
H 21.72328096 20.85623567 19.26983016
H 15.69385351 20.14480235 23.76509065
H 16.09608105 20.34323733 22.33701411
H 20.37078565 20.15782053 17.31708935
H 19.76959916 19.52731301 18.64832645
H 20.83810877 17.72440269 20.86889107
H 20.13085332 18.01386842 22.36477139
H 20.01972838 20.79517357 21.67148163
H 20.51676937 22.05721669 21.11166557
H 18.25080904 21.65688073 21.47159284
O 17.25765804 21.44234828 21.29744205
O 18.42947622 19.25952397 19.85675543
O 17.71093574 17.20563221 22.63801038
O 22.10673758 21.40955202 19.99188012
O 15.81227879 19.58723012 22.92512733
O 20.68150888 19.79492747 18.19866308
O 20.35521473 18.38480554 21.47359319
O 19.85629193 21.76433502 21.77185825
24
i = 0, time = 0.0, E = 0.0;
H 17.89306318 22.71641738 21.06402067
H 16.69239690 20.91348445 20.32580050
H 16.75291781 19.41203760 20.27009788
H 17.82543954 18.66923203 22.66308861
H 17.05179987 17.43362917 21.98605868
H 21.17421694 20.67736496 19.81008884
H 20.29165976 20.28368582 18.57913843
H 19.66750498 20.02477590 23.37860338
H 18.74628561 20.78983572 24.31852980
H 18.31803210 20.93906541 16.90081733
H 17.77856499 20.24969726 18.26187736
H 19.63037257 17.79874075 21.51270291
H 20.75832415 18.33004298 20.57279347
H 22.03933382 20.34399627 23.20996028
H 21.25183299 19.23585064 22.33256785
H 18.55354728 21.36279967 21.70293180
O 17.76236474 21.99617993 21.75588583
O 16.87544927 20.21920110 19.68989303
O 17.48841869 18.26512535 21.83340898
O 20.91068375 19.91289574 19.28834912
O 18.75909060 20.00833669 23.68669397
O 18.59790173 20.37713849 17.67006634
O 20.62685955 17.85130355 21.42966161
O 21.21981429 20.14308018 22.74726832
24
i = 0, time = 0.0, E = 0.0;
H 18.03219151 22.00929051 24.02778173
H 19.60577729 16.70535255 19.23113785
H 18.46987841 17.81892563 19.42399602
H 16.92152878 19.65867354 19.84417560
H 17.15914254 19.20524967 18.30087618
H 21.04554428 20.38613645 20.05257610
H 22.03194602 21.55321564 20.27692855
H 17.06213837 21.11661001 21.96643043
H 15.83334408 21.18612539 21.11079387
H 19.69672642 19.20329472 18.42824680
H 19.16531739 20.31738776 19.21166208
H 18.22950051 19.38279059 21.94281289
H 18.98459642 18.02899047 21.90228525
H 21.58332855 20.61110524 22.81267190
H 20.54890146 19.50192443 23.21086540
H 18.97669544 20.97279603 23.35222942
O 18.11735530 21.42650495 23.21773550
O 19.40533928 17.57847401 19.58233195
O 16.77910532 18.89411529 19.16650959
O 21.68108949 20.74470740 20.75183759
O 16.78436508 20.91974395 21.05609757
O 19.78504668 20.16197272 18.45421163
O 18.77992633 18.79695287 22.48573435
O 20.97631967 20.34673147 23.49977338
24
i = 0, time = 0.0, E = 0.0;
H 16.78289315 21.34422193 23.91073782
H 18.31092040 17.65085264 19.56310811
H 18.89374850 16.34924158 19.12900219
H 15.54848312 18.05145391 20.00504133
H 16.71659350 18.95302399 20.66477625
H 21.55485401 21.69506464 19.61093446
H 20.69845979 20.58249578 19.07733993
H 18.84664490 19.75909854 21.48095641
H 17.81207411 20.93073604 21.80063814
H 18.36864964 20.60037028 19.32900294
H 18.87065642 19.53490348 18.32250927
H 20.74144477 18.31238344 21.79175255
H 20.97998593 19.78713056 21.22811948
H 20.58266647 20.50974825 23.90428633
H 20.05324321 20.28346341 25.31051564
H 18.37517058 21.58289402 23.88659733
O 17.58626661 21.54481114 23.29619769
O 19.14775003 17.32407779 19.25646033
O 16.51791869 18.35408604 19.94830695
O 21.62226055 20.74010741 19.41154876
O 18.10949220 20.33910890 21.08417315
O 18.79165102 20.49329479 18.41910128
O 20.54958629 19.28841802 21.94055732
O 19.99685696 20.89434492 24.61092021
24
i = 0, time = 0.0, E = 0.0;
H 19.77397751 21.46900639 20.32882452
H 18.16447574 20.00333320 19.48006106
H 17.29740921 18.69568407 19.31010350
H 16.37415331 17.99304632 21.81583380
H 16.81450187 19.55200614 21.87847747
H 21.97885817 20.77202275 21.01515479
H 21.56668768 20.19899368 19.60417314
H 17.55574404 21.27613228 21.67775182
H 17.57861088 21.09917574 23.23755462
H 20.26180460 18.19784713 20.27459155
H 19.99572033 18.72414236 18.68930488
H 18.84291542 18.18589315 21.66553840
H 19.89450242 17.26283402 22.42147857
H 19.88727679 19.92801440 22.90079816
H 20.18252289 20.72178907 24.15807779
H 18.62060281 22.60622841 20.40699650
O 18.75088541 21.60131424 20.39448999
O 17.85335131 19.33495712 18.79156445
O 16.97758752 18.62760506 21.44793651
O 21.69155353 21.06741457 20.12495907
O 16.95968971 20.99049631 22.46922784
O 20.69588446 18.52871541 19.39327089
O 19.81093307 18.15674096 21.89728619
O 19.47773447 20.62318113 23.45801898
24
i = 0, time = 0.0, E = 0.0;
H 18.63263256 21.62250155 21.54718763
H 18.45153330 18.44173049 21.46413854
H 18.18671638 17.79521904 20.09320996
H 15.92072821 16.67658143 19.52093075
H 16.13428767 18.16491636 19.52709425
H 21.34753339 20.83221862 21.30026025
H 22.20606402 20.03311771 22.29226850
H 16.53040228 20.10790669 20.95267508
H 15.30412891 19.22532876 21.46279088
H 19.54767618 19.75406148 20.22001291
H 20.55324842 20.26310552 19.17196817
H 22.25601214 17.20347646 21.89854592
H 20.80379170 17.77361232 21.66959324
H 19.77423916 22.72742560 20.57323872
H 20.55287914 22.38623844 21.86703259
H 17.55286412 21.85741005 22.54525470
O 17.82825901 21.14705899 21.90057034
O 18.91502037 18.23141863 20.65768188
O 16.58259486 17.32219447 19.22920503
O 21.76376492 20.97162797 22.18607824
O 15.62648943 19.74931033 20.67827537
O 20.02894505 20.59782491 19.97876910
O 21.73029017 18.01139682 21.97184284
O 19.80746642 23.01434166 21.54812869
24
i = 0, time = 0.0, E = 0.0;
H 19.69784218 20.96649399 20.83016538
H 17.49519496 20.36576283 19.21586898
H 16.47260453 19.19315495 19.44735008
H 15.91549632 18.22580087 22.11059830
H 16.90712159 19.27715951 22.55507461
H 21.12453313 18.29978776 19.85523744
H 22.14823727 17.41347826 20.62257026
H 18.43366500 20.83954023 23.05204901
H 17.41228017 21.97600256 22.99675039
H 19.24424463 17.21099984 17.90097895
H 18.58523264 18.49608263 18.47078367
H 18.81633485 18.83774369 21.81089977
H 20.30311380 19.26155308 21.91129701
H 21.54747292 23.00427773 22.39020852
H 20.64345618 22.18578690 23.34211022
H 18.95743140 22.22950898 20.13774299
O 19.14235631 21.28450371 20.06008316
O 17.14024187 19.55938603 18.81572710
O 16.84523538 18.51530848 21.93771278
O 21.81896254 18.36484909 20.55183844
O 17.65993931 21.27313838 23.57957355
O 19.47876847 18.03999041 18.42483060
O 19.42741112 19.39513996 22.34971202
O 20.77309538 22.42899442 22.39683218
24
i = 0, time = 0.0, E = 0.0;
H 18.68273104 22.87808343 20.06884965
H 19.33764536 20.54257582 19.97526711
H 18.64423874 19.19233817 19.97223883
H 15.95410609 19.00735692 20.45333091
H 16.28702317 17.98760145 19.30650293
H 19.91583355 18.81595415 22.56911768
H 20.60745072 18.78738409 21.16402584
H 17.32710278 21.26495523 21.32575304
H 15.87455432 21.25001586 21.84396309
H 22.63939845 19.58598697 19.02140585
H 21.13925309 19.16376198 19.00438202
H 17.71061703 18.04600604 23.07853090
H 17.41224180 19.37461983 22.54602894
H 20.88568828 20.81184896 22.42302822
H 20.89801425 22.21844503 23.10113471
H 19.61906604 22.04899303 21.15652693
O 18.76807277 22.03160206 20.53736550
O 19.52920248 19.56484954 19.81791890
O 15.75115865 18.12228246 20.12655161
O 20.81315677 18.70621469 22.13107547
O 16.55019980 20.62618402 21.52682750
O 22.02822844 18.91256666 18.63092346
O 18.13243890 18.91785186 23.06650943
O 20.76202132 21.77860060 22.25643132
24
i = 0, time = 0.0, E = 0.0;
H 16.99953163 21.14399299 19.93670312
H 18.00897742 18.30459842 20.04718920
H 19.24048539 18.88248952 19.23769645
H 17.43647871 17.13060302 22.45321776
H 17.31800659 18.66344532 22.41282299
H 20.01669232 22.75872706 17.77759143
H 19.93072485 22.57384243 19.32589588
H 16.66837336 20.97284753 22.47230134
H 16.54023059 20.75327149 24.01418281
H 21.95139073 17.69994055 18.71068438
H 21.08889209 17.55355810 19.96377986
H 19.85208251 18.04106270 23.55614109
H 20.93831548 19.03909490 24.11119488
H 19.56853240 21.53937381 22.39340895
H 20.40939868 20.30359531 21.83380195
H 18.21554539 21.42458881 20.88457914
O 17.22396195 21.61197446 20.78545010
O 18.25318554 18.75651570 19.16998497
O 17.72854861 17.91507125 21.98070944
O 20.46412532 22.31957450 18.54095959
O 16.39528702 20.30707405 23.16695264
O 21.71181150 18.23182558 19.51216436
O 20.59037573 18.69531509 23.27655677
O 19.88851084 21.08684418 21.52718738
24
i = 0, time = 0.0, E = 0.0;
H 18.97063299 22.57853436 20.04294610
H 18.62994570 19.28365565 22.43621651
H 17.64635380 18.10334902 21.83215196
H 16.32148383 19.09469488 20.85668496
H 15.32615745 17.78596082 21.13981598
H 22.54968614 19.67252927 18.71891369
H 21.06730688 19.58707337 19.09282457
H 17.22754271 21.39359379 20.87133143
H 15.65857191 20.97605127 20.99049073
H 18.59095426 19.37081843 18.90392395
H 19.01220364 18.75877377 20.39993189
H 20.80306274 18.53597422 22.17433504
H 21.57934773 19.32412189 21.08797144
H 19.63375387 20.92099934 23.72514320
H 20.50057247 20.35238074 22.68898562
H 19.10103214 22.04123781 21.58436594
O 18.46155876 22.47311391 20.89430557
O 18.68604498 18.39582367 22.04758729
O 16.26140383 18.08162662 20.91399328