15
i = 0, time = 0.0, E = 0.0;
H 22.17235157 22.81746065 20.28428955
H 20.96301122 21.34128737 18.62896366
H 19.46552584 21.16912574 18.60231597
H 19.65411296 18.89958722 19.86561719
H 18.27319011 18.82236944 20.45336181
H 19.12003690 21.64421286 21.95465763
H 19.96393976 20.37344938 22.13178562
H 17.33561205 23.41365787 19.80624134
H 17.08321719 22.71221913 18.41763152
H 20.98139976 22.01938556 20.99867372
O 21.31085577 22.38621355 20.12036871
O 20.24045822 20.70272588 18.30094027
O 19.21935160 18.71432697 20.77727586
O 20.03556962 21.30715871 22.23879503
O 17.43172972 22.52392975 19.32608096
15
i = 0, time = 0.0, E = 0.0;
H 19.25577335 22.27570356 21.74963093
H 18.55547953 19.83400647 18.47267845
H 17.26785144 19.65332402 19.11024305
H 19.17448493 20.09022992 21.60135591
H 18.47794178 18.73488245 21.41086755
H 22.62804258 23.81472095 20.03697695
H 21.84248552 23.25672273 18.88212276
H 18.66389753 22.69293216 18.74221162
H 19.67080576 21.74192978 19.34414734
H 20.57906995 22.45935166 21.10372611
O 19.95813674 21.80490237 21.27313154
O 18.14334297 19.22854845 19.13979101
O 18.71714560 19.36307376 22.11889207
O 21.97417759 23.09651842 19.82955284
O 19.37564129 22.05682052 18.44553948
15
i = 0, time = 0.0, E = 0.0;
H 19.44587328 24.41643762 18.37710938
H 20.53193465 19.94760086 22.01778924
H 19.38475601 20.57944705 21.24271269
H 19.35264963 18.26820529 20.87178357
H 18.56497158 17.40649441 19.84028856
H 21.16668515 21.51551674 19.57574668
H 21.54436129 22.80091917 20.19788827
H 18.55293433 22.86784687 20.31880136
H 17.75549693 22.36437315 21.49355623
H 19.74318353 23.08530049 18.63104524
O 18.97250087 23.56174916 18.41408259
O 20.15073366 19.93685263 21.11067761
O 19.06423382 17.30638912 20.73170797
O 21.32224958 22.42549680 19.28403771
O 18.66332465 22.40138562 21.13328884
15
i = 0, time = 0.0, E = 0.0;
H 21.04252532 21.53853705 21.05520409
H 19.26987802 18.26591946 18.44808054
H 18.85451691 19.69208496 18.94500655
H 18.00628307 21.40732400 20.52379665
H 16.97861304 20.87408418 19.41895519
H 20.90178543 19.56389640 19.80412566
H 22.34567180 19.76877659 20.12347345
H 18.09754320 24.35111597 20.74208075
H 19.19853458 23.31253551 20.93621589
H 21.76597991 22.87261843 21.54799692
O 20.93855352 22.58910716 21.15726837
O 19.57637142 19.18753048 18.49930178
O 17.85272365 20.62060468 19.92080691
O 21.50071650 19.94116764 20.54824124
O 18.27831127 23.39460041 20.61255291
15
i = 0, time = 0.0, E = 0.0;
H 21.24360133 23.87029999 19.38174101
H 18.38178558 19.69089402 19.38711869
H 18.22875128 21.16791272 19.37181194
H 18.81460866 20.13230823 21.75257963
H 19.73154258 18.89441339 21.43615511
H 21.55639478 20.29481801 18.68332322
H 20.06593093 20.69547470 19.02232931
H 19.60559655 22.69198966 20.69612423
H 18.12640256 22.92824836 21.30326862
H 21.37302155 22.37589945 19.96070182
O 21.14877547 23.30554863 20.17313584
O 18.39710667 20.39499887 18.67583807
O 18.79903993 19.12550778 21.50276175
O 21.02319677 20.56791928 19.50132880
O 18.73657769 22.27002345 20.91974518
15
i = 0, time = 0.0, E = 0.0;
H 18.39749765 22.20641643 20.76217872
H 21.86342068 21.66352244 17.99319614
H 21.02595075 20.65832468 18.85842770
H 16.19442870 18.51649356 19.92244344
H 16.07622496 20.01760964 20.32963277
H 22.34964924 23.32687943 21.12149466
H 22.20831759 21.92621502 20.62469616
H 19.97994120 19.40675883 20.76105885
H 18.62055345 19.61859850 19.94362324
H 19.01019950 23.22387943 21.69588273
O 18.24510344 23.14870539 21.09264550
O 21.99450233 20.96912979 18.68661903
O 16.38115133 19.45470666 19.61929575
O 21.98927822 22.46662463 21.39231582
O 19.58295823 19.76202642 19.91782824
15
i = 0, time = 0.0, E = 0.0;
H 19.03296877 22.90615178 20.20482543
H 19.69434953 19.02032840 18.29620929
H 19.19322101 20.38039297 18.69974969
H 20.20058079 21.18603874 21.82210396
H 19.57630463 22.04934749 22.98521734
H 21.97081455 19.64526448 21.59720974
H 21.14967098 19.74755906 20.25293845
H 18.38091329 21.02943205 20.70893809
H 17.76642321 21.50418327 19.37832383
H 20.01185832 22.60687551 19.10342045
O 19.35760268 23.30083840 19.40554229
O 19.94943170 19.94247636 18.21513906
O 19.33647873 21.62402036 22.09448651
O 21.42978611 20.23804820 21.07778060
O 18.04088138 20.72662634 19.85046478
15
i = 0, time = 0.0, E = 0.0;
H 20.80013152 21.63713329 21.53648786
H 19.86217744 20.31173666 19.44227585
H 18.49147716 20.37644851 18.71408557
H 18.20685744 19.36987107 21.58868687
H 18.07700850 20.79891738 21.96412187
H 21.36712602 20.77952259 18.08751021
H 22.79439450 21.37614518 17.91438228
H 17.94301099 22.80213933 19.79798930
H 18.77258778 22.14716969 20.76626828
H 21.27311598 22.09670425 20.05029979
O 20.53156228 22.18967568 20.78029961
O 19.40953481 20.04818317 18.64212400
O 18.29319910 19.95636756 22.32302867
O 22.06468519 21.28772634 18.53902302
O 17.77671755 22.24797702 20.55972071
15
i = 0, time = 0.0, E = 0.0;
H 20.57180502 23.11768941 21.39951472
H 20.44922307 19.22699423 18.24529721
H 19.33776160 20.07955058 18.94134939
H 17.27859088 22.93409057 21.07305278
H 18.60455209 22.08374469 21.40982662
H 21.62143582 20.62237395 19.78557792
H 22.41929186 20.55056969 21.24537124
H 17.71407819 21.36478381 18.68014967
H 17.22555830 19.98441964 19.17898589
H 20.82702950 21.63714219 21.48270957
O 20.37234555 22.38722716 22.02007023
O 20.25502096 19.64747918 19.07919624
O 17.78946023 22.10974754 20.81618352
O 22.21924109 21.12223988 20.45073196
O 17.53656648 20.46918544 18.37848502
15
i = 0, time = 0.0, E = 0.0;
H 17.88971348 23.35371941 18.84284947
H 21.79850246 19.51489815 19.26018790
H 20.53686241 20.29549039 18.98036728
H 19.65148103 19.46865044 22.23261478
H 19.55006773 20.96487888 21.85582087
H 21.66984176 22.57984490 21.38956449
H 21.25232459 21.45356825 20.44785008
H 18.22265844 21.03959804 19.09613793
H 18.71320520 19.49969555 19.32559632
H 18.64628098 22.84342854 20.12533728
O 17.83819630 22.64163552 19.55279339
O 21.45443189 20.44677965 19.23406779
O 18.97339837 20.22029717 22.12937242
O 20.87748638 22.16372882 21.00820350
O 18.91057240 20.30045827 18.81301646
15
i = 0, time = 0.0, E = 0.0;
H 20.68316191 22.78255116 20.41676127
H 20.91413632 20.19679962 17.66023761
H 19.80707801 20.42928294 18.64319063
H 16.08625934 20.01877567 22.15511012
H 17.24677936 20.42861973 23.00235305
H 22.97049728 21.46280667 20.56741870
H 21.82126824 21.08391773 19.47455950
H 18.59066769 21.61792984 19.97732184
H 18.43089670 20.09731710 20.50535948
H 19.77296918 23.85643814 19.70873850
O 19.74674651 22.98114105 20.14456103
O 20.78728818 20.22993913 18.59929899
O 17.07092706 19.96000936 22.18543378
O 22.26761028 21.82057397 20.02968139
O 18.28277476 20.72071019 19.74352855
15
i = 0, time = 0.0, E = 0.0;
H 18.76786403 22.86494436 21.42998548
H 20.95335398 21.84470091 18.07645085
H 20.04589602 20.82670457 18.93599777
H 16.47441101 19.81723668 21.02587343
H 17.58083380 20.94019839 21.08132818
H 22.26512372 21.95598057 20.04653495
H 22.10003387 21.89642228 21.51854622
H 19.51911227 18.55206582 18.74970568
H 18.58648249 19.29233867 19.79969943
H 18.94919524 22.35972744 20.01278772
O 18.30171694 22.37766822 20.75431962
O 20.46155183 21.80469852 18.91173672
O 17.44077827 19.95943033 21.21662600
O 22.76179384 22.24971426 20.88556663
O 19.25763885 19.42318821 19.02461131
15
i = 0, time = 0.0, E = 0.0;
H 22.05255039 22.94056919 22.27764680
H 19.65914407 20.04764629 16.77627676
H 18.75392894 20.20899547 18.10527823
H 19.30853867 22.02941315 22.18101051
H 18.45000598 20.89723873 22.70637305
H 21.83856457 21.42645923 18.84122390
H 20.46130338 20.96171017 18.83569546
H 17.98255418 20.81550085 20.39972267
H 16.77434378 20.12421639 19.61838923
H 21.22038425 21.96440044 21.28883377
O 21.39540801 22.22659898 22.25252340
O 19.58697919 19.77678013 17.68391525
O 18.45327284 21.56262449 22.05212162
O 21.02752410 21.67445498 19.28279991
O 17.68097290 20.50708948 19.49922564
15
i = 0, time = 0.0, E = 0.0;
H 20.04127640 24.10362627 20.45397439
H 20.11546029 20.87538455 16.96407037
H 19.05993580 21.01270096 18.12959696
H 19.04737578 19.31602409 22.68919018
H 20.02269300 18.08094465 22.70512385
H 20.63252541 20.19474140 21.06046899
H 20.84481897 20.69893370 19.55989175
H 18.11066537 22.34203380 19.85707245
H 16.88681936 22.30231609 18.96631950
H 20.20352844 22.38328440 20.45246926
O 19.59172253 23.20344836 20.35259046
O 20.04257563 20.81677682 17.92406223
O 19.99786598 19.08041263 22.67187493
O 21.02049574 20.91533926 20.51856634
O 17.58828502 21.73825953 19.31560578
15
i = 0, time = 0.0, E = 0.0;
H 18.36993403 22.64285104 21.36175726
H 20.67725674 20.47791430 18.98769011
H 21.46189166 20.31211888 17.65862679
H 16.55678874 19.61200250 20.34677235
H 18.03456896 19.60542243 20.48326585
H 20.78701738 24.02618186 18.98501936
H 20.86394021 22.48340277 19.05311732
H 19.61732748 20.95713220 21.13339461
H 20.18496424 19.55209885 21.16130885
H 19.84726243 22.88679967 21.30911961
O 19.18168721 22.37568592 21.85489004
O 21.45603509 20.89041199 18.45230115
O 17.26843034 18.95683338 20.40603953
O 20.46793223 23.29922822 19.53776997
O 19.77639563 20.15357831 20.55426111
15
i = 0, time = 0.0, E = 0.0;
H 21.25781970 23.83600573 19.78338935
H 20.42584187 20.44852363 21.78788522
H 19.60114148 19.50479447 20.94685769
H 16.98642054 19.47763283 19.70129510
H 17.78083578 20.69292210 19.88283773
H 20.55283872 20.47864574 18.76946113
H 21.50641126 19.87674213 19.86713384
H 18.74939174 23.09709667 20.05864442
H 17.95469419 22.39127685 21.22162163
H 20.97142717 22.35255627 19.77731116
O 20.48202380 23.22703983 19.77583501
O 20.47072736 19.51308670 21.45217428
O 17.88217951 19.75392768 20.04484087
O 21.46299580 20.63114973 19.16727517
O 17.89124661 22.57571830 20.28220029
15
i = 0, time = 0.0, E = 0.0;
H 20.89744576 20.50809226 21.60008256
H 18.40057636 19.58142666 18.07578732
H 18.97419241 20.94948226 18.51035186
H 19.20696045 22.15185574 21.82779719
H 18.07958322 23.28192709 21.82987280
H 21.78966682 18.71676406 19.83212032
H 20.83601069 19.77856224 19.30527373
H 17.91800512 22.65631116 19.09613917
H 19.34061756 22.91976438 18.93574744
H 20.38819685 20.39252692 23.05588948
O 20.48608595 21.02260790 22.35002234
O 19.12362555 20.01517277 18.58895762
O 18.32520201 22.44509981 21.44160533
O 21.61199962 19.69355449 19.93321469
O 18.63946051 22.60131953 18.39134922
15
i = 0, time = 0.0, E = 0.0;
H 16.93863174 22.39721455 21.60949165
H 23.05689143 19.82760201 19.65241061
H 22.00710303 20.70505221 20.35579757
H 19.52497043 19.92396904 19.81250455
H 20.60123315 18.81165652 20.04932553
H 20.37020797 23.71591938 21.12057531
H 20.28234259 22.21919942 20.63018365
H 17.49347617 20.78394476 19.50184730
H 16.86348460 19.35957002 19.11562436
H 18.17924054 22.58336388 20.76265261
O 17.23262490 22.44900106 20.63289320
O 22.95535856 20.62807095 20.21577933
O 20.40479039 19.69383102 20.29952686
O 19.93479926 23.13628756 20.47490602
O 17.69116400 19.90894723 19.04793655
15
i = 0, time = 0.0, E = 0.0;
H 20.62220995 24.12982970 17.72972178
H 18.90827289 19.50418766 21.01919214
H 19.10009789 21.08590430 20.76694504
H 18.31037094 17.80622984 22.66117081
H 17.17075087 17.83967341 21.73843033
H 21.50370422 21.97562969 20.40985200
H 21.06702841 20.86663512 19.44778776
H 19.13428493 23.11869271 19.57922260
H 18.75603771 23.32973500 21.09865846
H 20.99598309 22.72500002 18.40258185
O 20.20944977 23.33470489 18.10370749
O 19.58676614 20.22212141 20.97089862
O 18.12358912 17.74794105 21.68998329
O 21.76318550 21.57094736 19.58711887
O 18.51992255 22.81101141 20.30401431
15
i = 0, time = 0.0, E = 0.0;
H 17.20411417 22.75212214 19.83664801
H 21.31269656 20.12144773 19.67294583
H 22.65482501 20.78312699 20.11030256
H 18.04340023 20.85291662 21.03929838
H 17.42915006 20.07408287 22.26890879
H 21.21323615 22.57542863 20.08038168
H 21.06112072 24.04594061 19.43977110
H 19.23756519 19.79609058 19.18483025
H 19.12175792 18.76460938 20.28228311
H 18.87493469 23.08004470 20.12112656
O 18.07999443 22.48791009 20.24021796
O 21.91594157 20.84862750 19.45701074
O 17.83293981 19.93927002 21.39680757
O 20.67504361 23.39069407 20.10197346
O 19.66219556 18.99097215 19.51119120
15
i = 0, time = 0.0, E = 0.0;
H 20.68999255 23.36557661 20.29149821
H 18.24377254 21.14370027 17.87750818
H 18.53269067 21.37255890 19.44412339
H 19.12979269 18.49117423 21.16674146
H 17.99599895 19.17758218 20.40455693
H 22.34764647 21.32289569 18.30196630
H 20.97799525 20.79653325 18.62501781
H 18.70316778 22.28866421 21.74498677
H 18.08731994 21.02841704 21.49588665
H 21.26135856 21.97880810 20.43432266
O 20.77131732 22.65636062 20.98065443
O 18.94213592 21.04572334 18.57091216
O 18.55229614 19.27852619 21.16483969
O 21.89679702 20.83128139 19.00655902
O 18.01510242 21.96402339 21.12598748
15
i = 0, time = 0.0, E = 0.0;
H 18.22079244 22.19304721 19.13847864
H 20.54137493 19.62663919 17.28214015
H 19.96072304 19.65094473 18.68437133
H 19.09238760 20.93110867 23.27470046
H 20.02763026 21.15423660 22.15759702
H 22.01711238 22.41888354 21.60270319
H 21.11538073 21.97770743 20.40518448
H 17.78763473 19.84404122 19.49056259
H 18.63104680 20.16653734 20.72718543
H 18.94907108 23.51535719 19.02392695
O 18.09590532 23.10720132 18.74547491
O 20.74001069 19.29009341 18.23892232
O 19.65378885 20.40208673 22.76685265
O 21.15020318 22.57172220 21.20942281
O 18.51421399 20.37251588 19.76225697
15
i = 0, time = 0.0, E = 0.0;
H 20.93982200 22.39172913 20.05905930
H 19.95875496 19.97859593 19.30057518
H 21.40243734 20.00162137 18.64720220
H 18.45116998 18.81706522 20.10590215
H 17.64535116 19.73120092 19.13754095
H 21.22542334 20.73635054 22.36234580
H 19.81990806 20.26388058 22.49606603
H 18.00547817 22.70500083 18.25137911
H 18.88861254 22.56622663 19.43274480
H 20.45321679 22.30315500 21.38369344
O 20.50076052 22.99033531 20.66485137
O 20.82897296 20.52190741 19.21674505
O 18.36737264 19.09178182 19.17891387
O 20.39227266 21.05901809 22.61471170
O 18.03657920 22.20555642 19.08616155
15
i = 0, time = 0.0, E = 0.0;
H 17.85598000 23.49243659 20.77975243
H 21.36060407 20.22737034 18.47621552
H 19.74687464 20.62138445 18.75427322
H 20.07756616 20.51672413 22.04103079
H 19.47038056 19.87317218 20.85725495
H 21.83666834 22.15496628 21.30453098
H 21.14533112 21.77523964 19.99313483
H 17.92852896 20.37159445 18.31173397
H 18.06788326 21.12102817 19.58050230
H 19.13470002 22.60793308 20.89831905
O 18.19753978 22.57615562 20.49866313
O 20.71268150 20.98249140 18.48297730
O 19.95714969 19.60495020 21.71383944
O 20.99683310 22.20688390 20.90435864
O 18.27219093 20.29228256 19.17287068
15
i = 0, time = 0.0, E = 0.0;
H 20.46634051 22.66116491 21.08757212
H 19.51152981 19.34228703 17.62978335
H 18.95968450 20.81812621 18.11102751
H 18.76127069 20.52211571 21.04353067
H 19.32737872 19.65919594 20.01576037
H 20.74327523 20.59339200 21.72968158
H 22.24946158 20.31178507 21.75245215
H 18.66538133 22.58504217 19.31978921
H 18.33825270 22.97218648 17.89835672
H 19.36625092 23.58410119 21.70505483
O 19.48859745 22.81596247 21.11886951
O 19.53526195 19.98196037 18.34606981
O 19.05194589 19.59425997 21.00348914
O 21.66246494 21.08986632 21.86872229
O 18.41297429 22.16259796 18.47989680
15
i = 0, time = 0.0, E = 0.0;
H 21.64410128 23.12757673 19.24469205
H 19.29163880 19.68710950 21.78485998
H 18.52529494 19.58614724 20.52049465
H 16.26277973 20.69023637 19.53224659
H 17.60199506 21.54785425 19.58266255
H 22.08839125 19.72716903 19.66155882
H 21.07507502 19.85516233 20.69603284
H 19.73473521 22.54994686 19.46346052
H 18.30656568 23.40618001 19.17806794
H 21.68495017 21.99237769 20.28188150
O 21.16337877 22.87220348 20.08405007
O 19.25419821 19.12940069 20.98901492
O 17.05026887 20.88199617 20.07403768
O 21.92728066 20.32437714 20.47317658
O 18.76703650 22.49209018 19.21863387
15
i = 0, time = 0.0, E = 0.0;
H 20.51259095 22.69516457 19.49726870
H 19.61908067 19.25883845 20.05175819
H 20.45187937 18.34973517 19.08681974
H 18.40420640 20.54342017 21.37289675
H 19.69987874 20.29469120 22.12684440
H 22.49396310 20.83832886 20.14512257
H 21.05197909 20.48506121 19.40579857
H 18.31758035 22.63798716 20.15975222
H 17.05203779 22.95920182 20.97665532
H 19.96772669 23.82048524 18.45727744
O 19.72340549 23.22937625 19.28460733
O 19.96849732 19.19136669 19.10680083
O 18.99465489 19.77389197 21.62111921
O 21.60516118 21.17375526 19.83498232
O 17.78504886 22.34974991 20.90734131
15
i = 0, time = 0.0, E = 0.0;
H 20.23656549 24.00502602 20.44543598
H 19.89281106 19.38687193 20.54045082
H 19.18291519 19.76534827 19.21170281
H 17.73498305 21.72669447 22.10722031
H 19.06235357 22.11453722 21.45998844
H 22.68763398 21.06076268 19.17428948
H 21.26888081 20.51646819 19.42156210
H 16.75018656 20.36700208 18.99313443
H 17.69691193 21.31804543 19.77362753
H 20.91321092 22.60362239 20.35820934
O 20.27171170 23.16211700 20.88678305
O 19.96610293 19.23759631 19.55609319
O 18.41607043 21.35418878 21.51577398
O 21.91076721 21.17665791 19.78299017
O 17.64722553 20.72574396 19.00026788
15
i = 0, time = 0.0, E = 0.0;
H 22.53516663 21.74957451 21.52366517
H 17.98547360 22.02418331 17.76498723
H 17.97626944 21.62832460 19.35093944
H 19.56389449 19.31501093 21.21223096
H 20.16970610 20.63788649 21.84065069
H 20.15920217 21.34527983 18.46053494
H 21.04337533 22.54535046 18.18626708
H 16.49220799 21.65352548 21.52886653
H 17.92390835 20.93239144 21.53634690
H 21.82529620 21.40883768 20.13814606
O 22.12136833 21.07519314 21.00260724
O 18.28802877 21.38796955 18.42294388
O 19.36892436 20.08182164 21.80414366
O 21.07224389 21.61262485 18.53756195
O 17.34568447 21.47500616 20.97105944
15
i = 0, time = 0.0, E = 0.0;
H 22.30716996 22.64725658 20.78185449
H 18.14659812 19.82684026 20.08357857
H 18.72172219 21.18920868 19.55418378
H 17.72619988 19.05517211 22.44010513
H 16.43996931 19.18610841 21.47234935
H 21.71598410 19.53295097 18.99016457
H 20.48149170 20.21616970 19.37368371
H 19.88867364 23.05906276 20.32896012
H 18.75359729 22.78020224 21.24230028
H 21.52552879 22.15645871 19.50338018
O 21.78039454 22.95211554 19.98933932
O 18.64202868 20.23294886 19.31262793
O 17.35695518 19.54418245 21.68430792
O 21.44732910 20.42291353 19.31163683
O 18.96749880 22.70669795 20.30003613
15
i = 0, time = 0.0, E = 0.0;
H 19.37285525 24.28969721 21.48957135
H 20.38794616 19.24690099 19.18130814
H 21.73200030 18.80586956 18.40721107
H 18.14915864 20.10214035 20.24625801
H 18.34416681 18.61076349 20.58728229
H 21.54372661 21.13701457 19.92922068
H 20.95524457 22.29425130 19.33479945
H 18.13392657 21.90425538 21.08396062
H 16.82742526 21.68577956 20.35427504
H 20.38497570 23.35933839 20.85136781
O 19.39455441 23.51353001 20.98352181
O 21.24060438 19.63444652 18.73966523
O 18.62283664 19.23615177 19.91746378
O 21.53717318 22.11899344 20.07784289
O 17.39119428 21.24317500 21.02469772
15
i = 0, time = 0.0, E = 0.0;
H 20.16747378 24.07948298 21.22980369
H 19.14404844 18.58883519 21.63205648
H 19.26707363 19.25127635 20.23556666
H 19.39856641 20.27113727 18.02458959
H 18.10756396 20.60867235 18.69052017
H 22.17921362 21.16398296 20.59752283
H 21.07226100 20.20174956 21.10620158
H 18.90097424 22.52529777 19.45882177
H 17.63139683 22.28121467 20.38488036
H 20.60794820 22.61829740 20.92591879
O 20.32547552 23.50044635 20.48025654
O 19.79551806 19.06975487 21.05810348
O 18.66376772 19.80152448 18.52024862
O 21.41945713 21.11730292 21.20385960
O 17.94150101 22.24756956 19.42902043
15
i = 0, time = 0.0, E = 0.0;
H 19.82683849 21.87563619 21.76808770
H 19.89414392 19.55988586 19.41747033
H 19.97773650 20.78320996 18.44763509
H 17.52650442 19.44003528 19.91957659
H 18.19274666 20.38371777 20.85645392
H 21.83174521 20.25768725 21.63602434
H 21.27251408 20.86600804 20.26736840
H 18.86188401 22.75127064 19.57424835
H 18.80452527 23.55209379 18.25860470
H 18.54897034 22.66502712 22.19411682
O 18.96933484 22.32180014 21.41254625
O 20.52016551 20.10979706 18.89417438
O 18.30784785 19.49895467 20.48302107
O 21.50949972 21.09820279 21.25047044
O 18.94842974 22.67352997 18.64789296
15
i = 0, time = 0.0, E = 0.0;
H 17.87545212 23.41549306 20.00452432
H 20.80586917 19.84874673 20.39774977
H 20.05068988 19.43694863 19.17331075
H 19.52701356 20.65633488 22.92781736
H 19.33491314 21.74321725 21.72534214
H 21.83155615 22.96729741 19.11056690
H 21.17671057 21.67891125 18.84692736
H 17.72178752 20.55494190 19.84779890
H 18.44557557 19.85524001 20.90892231
H 19.30228149 22.92602739 19.75203470
O 18.54404785 22.82003828 20.36438414
O 20.96245926 19.76479514 19.42554146
O 19.65300486 20.82596571 21.98237294
O 20.92066092 22.60371500 18.88232743
O 18.09104240 19.62800579 20.01108701
15
i = 0, time = 0.0, E = 0.0;
H 19.82428334 23.04125021 20.16957075
H 19.08200322 19.34107484 19.21003508
H 18.18036227 18.56916979 20.21060487
H 19.94770022 19.86170655 21.08237798
H 20.45704259 20.58002613 22.46376281
H 21.19596658 22.15023065 21.17575939
H 22.16252074 23.15524229 20.33856584
H 18.31255825 21.74196028 19.09394871
H 18.68868170 21.45391019 17.70415876
H 18.43889628 23.80618393 20.46134438
O 18.79663137 22.90650911 20.27057885
O 19.11665360 18.54116890 19.86462224
O 20.74005001 20.25606370 21.53909471
O 21.25323590 22.95450947 20.58212449
O 18.25089909 20.94535778 18.45874235
15
i = 0, time = 0.0, E = 0.0;
H 20.17562004 23.50324945 20.42482561
H 20.35267792 19.03496954 19.59603892
H 20.93582779 17.84911973 20.42901291
H 17.10867384 22.32345046 21.52428369
H 17.99765386 21.79669315 20.42020666
H 21.92072518 20.50990005 20.98265346
H 21.38772691 20.45179626 22.46683460
H 19.04396919 22.65844260 18.25391075
H 17.83008758 21.62503479 18.47420950
H 20.34168446 22.06241472 20.89314440
O 19.84469357 22.58145153 20.26376779
O 21.20641726 18.69034108 20.00648959
O 17.10636454 21.67752943 20.79037165
O 21.29877952 20.97595025 21.60895203
O 18.65052011 21.79714221 17.94761096
15
i = 0, time = 0.0, E = 0.0;
H 19.96264041 23.60258492 18.47224827
H 20.82785567 18.67217893 19.51907369
H 19.94059723 19.86556351 19.74134142
H 17.04484947 21.13602314 23.09693749
H 15.91213591 21.05538566 22.11104503
H 21.90355070 20.87129597 19.94104917
H 22.88850594 21.67062001 20.91740064
H 18.32893772 21.39292114 19.28751233
H 17.85849363 20.70149272 20.51050175
H 20.71291028 22.77291581 19.55744670
O 19.80789948 23.01508450 19.22618596
O 20.90402308 19.68300794 19.53189307
O 16.88596735 20.92679225 22.17454100
O 22.47973614 21.65725589 20.05916147
O 18.13714840 20.44494180 19.64497726
15
i = 0, time = 0.0, E = 0.0;
H 20.11801625 24.28722579 20.37217001
H 20.20955481 18.95691343 18.20063975
H 20.16819288 19.43209976 19.62606611
H 18.41509311 20.42227484 20.71193044
H 18.18468823 19.24324216 21.56885590
H 20.91962056 20.50765873 21.19405708
H 21.11966910 21.51462955 20.11989240
H 18.16022861 22.37238439 19.82323050
H 18.52417949 21.34101070 18.63914876
H 20.14505672 22.81355290 20.94809338
O 19.55188359 23.46181511 20.49232134
O 20.59686647 19.63772799 18.76791797
O 18.95310576 19.62765851 21.10858601
O 21.26277972 21.44623135 21.08424769
O 17.81335580 21.60720211 19.30657319
15
i = 0, time = 0.0, E = 0.0;
H 18.96054719 23.61012722 20.25428448
H 20.64488188 18.67532091 18.89434156
H 19.57159236 19.66905212 18.73201529
H 18.55512572 21.86839856 22.55825310
H 20.14944821 21.67076149 22.63594334
H 22.45068347 21.85885597 20.04745925
H 21.10718344 20.95819251 19.95112248
H 17.68098172 21.08919564 19.11138267
H 17.39131855 20.66457358 17.74705252
H 19.99056643 22.46157607 20.23943080
O 19.00843017 22.66188416 20.02881219
O 20.53298591 19.65984709 18.88991294
O 19.28580843 21.26393971 22.92105475
O 21.54170985 21.76361458 20.38835366
O 17.77515899 20.32833422 18.59658305
15
i = 0, time = 0.0, E = 0.0;
H 19.88928274 24.08743066 21.34029870
H 19.48654477 19.80984101 18.76847628
H 20.75844732 18.96841624 19.29547970
H 18.88004531 21.51721541 21.54841268
H 18.47777623 20.79925064 22.94241362
H 21.38930415 21.27281666 19.55296313
H 21.40800259 22.28436117 18.41816704
H 17.10822009 20.17278158 19.03346722
H 17.83535877 19.93627894 20.45632955
H 20.55794220 22.94484052 20.45369608
O 19.85165556 23.13739881 21.11572485
O 20.47932845 19.82100267 18.77265374
O 18.26160009 20.88348052 21.98645348
O 21.77664115 22.17624134 19.34240735
O 17.81968939 19.70566701 19.50425034
15
i = 0, time = 0.0, E = 0.0;
H 17.45301715 22.09326994 22.33610120
H 21.62996204 21.42914787 17.77892801
H 20.11773549 21.54808434 18.38854973
H 20.34640639 19.61720372 19.65179019
H 19.13116323 20.04145931 20.38511615
H 21.22861432 21.86659367 21.01336860
H 20.68983567 20.62634124 21.61503816
H 18.04294003 21.76316925 19.41546563
H 18.03267088 20.78262063 18.21075246
H 18.95435946 21.92649447 21.88225087
O 18.03972070 22.04994170 21.49723375
O 21.02215225 21.14052338 18.44988135
O 19.85026956 19.34556815 20.45634956
O 20.90512463 21.55899162 21.85835610
O 18.38199399 21.63499335 18.53101109
15
i = 0, time = 0.0, E = 0.0;
H 21.18562478 21.97802341 21.56871112
H 18.20402845 20.17256941 19.48447909
H 17.97449239 18.99038883 18.51430501
H 19.06153142 19.89494710 22.35824084
H 19.94947740 20.44587867 23.34068334
H 20.22567409 20.73970888 18.32600573
H 21.34569380 21.64734290 17.59433860
H 18.77853716 22.43573303 20.78435076
H 18.68772631 22.69441313 19.33371618
H 20.87887406 22.17736684 20.11703385
O 20.86915312 22.67288985 20.95902360
O 18.67879597 19.48815880 18.89220485
O 19.93814932 19.72136918 22.72174237
O 20.46975648 21.67724538 18.08877728
O 18.20151146 22.20299179 20.08417709
15
i = 0, time = 0.0, E = 0.0;
H 20.87828366 21.55630776 19.51155241
H 18.99991510 19.67587808 20.52680573
H 18.44746945 18.71177064 19.44990011
H 17.44445027 20.94331785 22.97307856
H 18.04803855 21.72213599 21.72401408
H 22.28885000 19.91541456 20.08549345
H 21.28995301 19.60923085 18.94448376
H 19.24576601 23.14025791 20.23137887
H 18.10399291 24.06257014 20.63816202
H 21.13982835 22.65951210 18.53963343
O 20.47861374 22.39923728 19.14724434
O 19.21859057 19.32603873 19.59909611
O 17.99697259 20.78908826 22.12538008
O 22.14848797 20.08628952 19.09699661
O 18.34022514 23.11033650 20.70143714
15
i = 0, time = 0.0, E = 0.0;
H 21.00295478 23.03228757 19.55091909
H 19.94558529 19.36173529 20.09247550
H 20.30498415 20.58832428 20.76977051
H 17.52603007 19.68126197 20.92890695
H 17.37656642 19.00092064 22.27205894
H 22.58403902 21.57778354 17.94621454
H 21.70677050 21.06749065 19.01643561
H 18.58081670 22.22093524 20.54963039
H 16.92652638 22.16869944 20.68429527
H 19.70755320 23.50181754 18.99546644
O 20.14058395 23.41679822 19.87175278
O 20.71962992 19.97780463 20.15637286
O 17.61814422 18.77934683 21.35362694
O 21.96815228 21.87499455 18.60515489
O 17.75053795 21.64913905 20.79780871
15
i = 0, time = 0.0, E = 0.0;
H 19.01143659 23.44776701 20.69141578
H 20.04409753 20.77697165 17.25166844
H 19.02056551 21.44389633 18.36431834
H 19.89195055 18.74456898 22.06290660
H 20.48513189 19.80067811 21.22332599
H 21.42351410 21.57991386 20.95613353
H 21.39027145 21.20440568 19.45003611
H 17.12904526 20.73746668 19.53273495
H 18.36247615 20.27576099 20.43637042
H 18.59565773 22.14317094 21.28827309
O 19.25762155 22.84793521 21.43534345
O 19.68447502 21.63455120 17.63108679
O 19.55910520 19.53559760 21.59828453
O 21.68128662 20.85288946 20.32759084
O 18.03394497 20.95605720 19.76399518
15
i = 0, time = 0.0, E = 0.0;
H 19.94306112 24.14192464 20.85353626
H 20.32655222 19.52477158 17.58918267
H 19.67273416 20.46278953 18.54180881
H 17.76837333 20.48112097 21.88941978
H 18.02353690 19.30560854 22.73379669
H 20.15568802 20.46537632 21.35834571
H 21.15542779 20.52936172 20.17397172
H 18.97551623 22.55656604 18.85832873
H 17.91252078 21.64699378 19.39521709
H 20.50682185 22.68185143 20.63772496
O 19.89288716 23.31526269 20.27618392
O 20.42259239 19.78008980 18.50972375
O 18.51861738 19.94891048 22.23095658
O 20.96431891 20.91746256 21.07699318
O 18.47559772 21.76186753 18.61366885
15
i = 0, time = 0.0, E = 0.0;
H 19.35370781 21.92116846 21.66165728
H 18.73108843 20.29354371 18.55636500
H 17.52373383 19.40094237 18.90622332
H 18.83738741 19.76222265 20.60706957
H 19.53363963 19.45882494 22.04365885
H 21.23474253 21.45505133 19.86217855
H 21.62032689 20.74218649 21.25225759
H 20.18080089 22.22008633 17.88051142
H 19.53515999 22.45769264 19.25900420
H 20.19957115 23.09422353 21.62992542
O 19.39842767 22.76706906 21.18844564
O 18.47114310 19.41842788 18.97790973
O 18.96739902 20.08116475 21.56589638
O 21.92539480 21.48909717 20.61374589
O 19.36611453 22.03023469 18.38499646
15
i = 0, time = 0.0, E = 0.0;
H 18.32830535 23.38066245 18.53106899
H 21.34299658 19.35057370 20.07084390
H 20.29932843 20.05259935 19.30049294
H 18.09479308 21.40548108 22.44073091
H 18.05554597 19.98445688 23.08569666
H 22.09796756 23.04454088 20.31246146
H 21.57781116 21.60822629 20.57979012
H 18.48022433 20.83802716 18.71284273
H 18.06619710 19.52107832 19.52027209
H 19.27815724 22.94833320 19.63103781
O 18.53075156 22.62643999 19.10278457
O 21.18966626 20.17614396 19.63920674
O 18.37311174 20.50125817 22.25634465
O 21.47606099 22.53859334 20.88344882
O 18.63000941 19.85988652 18.81604489
15
i = 0, time = 0.0, E = 0.0;
H 20.16555846 24.02634195 18.87956126
H 19.43974459 18.09441529 19.18489803
H 19.40425427 19.20392704 20.36818365
H 17.67291871 20.39021389 20.80808485
H 18.65759183 20.86018273 21.82767482
H 20.39195568 21.05590046 17.23157606
H 20.51739317 19.94667602 18.46193750
H 19.67397498 22.72934936 22.88469120
H 19.50455846 22.84875669 21.32980469
H 20.24342992 22.54148166 19.04324165
O 20.15281404 23.33058215 19.52350448
O 19.88248734 18.88634279 19.56802302
O 18.27946564 20.02025928 21.49320970
O 20.84093054 20.80407098 18.09087753
O 19.04074886 22.68858274 22.15865529
15
i = 0, time = 0.0, E = 0.0;
H 19.65134196 22.86302068 20.69822050
H 19.70090338 19.89251562 18.93893262
H 20.67928520 19.92321924 17.77001585
H 20.11375940 19.82941931 21.14308237
H 18.61602599 19.44604911 20.97134926
H 21.77193678 21.86371063 19.97898616
H 21.95071464 23.28917355 19.64304760
H 18.12865488 21.60596343 19.85627793
H 17.16481690 20.63063918 19.00626444
H 18.61812671 22.41490946 21.75774206
O 18.65546153 22.80774677 20.85539284
O 20.63128195 19.79187428 18.71220995
O 19.31846084 19.67028089 21.67079127