45
i = 0, time = 0.0, E = 0.0;
H 21.30295002 14.99310590 18.60947426
H 21.88837102 19.61501332 19.27861576
H 22.38395749 19.27983745 17.85185676
H 16.84686430 15.36682422 22.79646697
H 17.46909647 16.45379816 23.66834147
H 18.65861018 22.13496114 20.78542977
H 17.91494831 21.18861065 20.04323741
H 19.54791821 16.60426580 19.45007055
H 18.53139445 17.85337756 19.06250861
H 21.81271669 22.44232721 20.16350483
H 20.32581410 22.66857671 19.89935809
H 16.82565889 20.44061761 22.65278221
H 17.61731049 21.67118802 23.09976470
H 22.43817661 17.37512505 21.20908128
H 23.22534015 17.90577973 20.03966616
H 21.29793742 16.38659741 22.88827465
H 22.71932157 16.79413230 23.12426351
H 18.32040028 17.99540615 22.10841372
H 18.72903234 19.14318681 23.13711848
H 15.90783122 21.00987606 20.85974957
H 15.82175306 19.69073969 20.03766648
H 21.00370287 18.85671343 23.51303379
H 21.05376732 19.70026454 22.14510852
H 19.64257848 20.11678084 20.37193142
H 20.13946089 18.58748903 20.27799550
H 19.23760040 15.35740707 22.80903257
H 20.16198813 14.16933542 22.33768992
H 20.29054708 21.93622817 23.53892168
H 20.20698868 22.77624480 22.29697287
H 21.69511413 16.19015008 19.57099880
O 20.92739930 15.72033153 19.13330149
O 22.72810908 19.39029569 18.72410809
O 17.65808886 15.57584807 23.31671282
O 18.88557851 21.38047547 20.11231523
O 18.98354876 17.30293143 19.79681270
O 21.04040109 22.96228376 20.53429463
O 16.79243487 21.38513725 22.58396581
O 23.02533689 17.03881311 20.43712916
O 21.84157041 17.18567360 22.87994538
O 17.96601311 18.77774691 22.57827422
O 15.81422017 20.69236868 19.96897484
O 20.82891599 19.75496431 23.19379276
O 20.48000923 19.51445871 20.44088777
O 20.17707950 15.07919203 22.70285175
O 19.62267748 22.31358246 22.96598383
45
i = 0, time = 0.0, E = 0.0;
H 19.04844998 16.51196610 19.25974928
H 22.87335356 20.42349564 19.59115016
H 23.47434843 19.19622034 20.31857345
H 18.26611542 14.81747670 21.34057733
H 17.70075856 16.29717240 21.02409668
H 16.73577176 20.92422288 20.48061685
H 16.61941492 21.88939400 19.38195170
H 16.84576348 17.86731015 19.78014843
H 16.35185357 18.12682400 21.33098219
H 21.72634013 20.99079399 22.24650082
H 20.47011938 20.87425224 21.17911548
H 18.61689768 20.06892193 23.65562702
H 18.23740289 21.55550551 23.93347906
H 22.78288450 16.84461959 17.95091597
H 22.59755535 18.24318063 18.59149016
H 21.90192149 16.37491243 23.74244610
H 22.24267334 17.23446211 25.01541878
H 19.03002476 17.95781813 22.69505384
H 19.44828614 19.11205203 21.73745557
H 16.80186845 20.52327721 22.64514071
H 15.17157213 20.59531938 22.16658846
H 23.27031761 17.83208493 22.37537623
H 21.89188028 18.37306584 22.14062770
H 18.91223649 20.50534383 19.73461818
H 19.74802367 19.12585573 19.30067830
H 20.28606482 15.94359535 21.63878994
H 21.61731518 16.17238098 20.86460377
H 18.69849796 23.77941308 22.89098857
H 19.73609611 22.63453672 22.83827203
H 20.26790114 17.31930349 18.39266370
O 19.25890208 17.13562936 18.49893544
O 23.34038737 19.54059977 19.40125922
O 18.49653645 15.69133233 20.95890615
O 17.24162154 21.19174867 19.67389475
O 16.66721693 17.45897421 20.67197248
O 21.00367909 21.51069536 21.76845416
O 17.83073487 20.62569638 23.84484071
O 22.11168125 17.32027278 18.45871965
O 22.59766662 16.80415732 24.21075098
O 19.59285117 18.78793026 22.67961066
O 16.07802907 20.26407459 21.95061710
O 22.82529304 18.65642993 22.05023452
O 19.62187550 19.86974592 20.04089043
O 21.22529290 16.03060880 21.76082140
O 18.98328470 22.97131246 23.36060938
45
i = 0, time = 0.0, E = 0.0;
H 19.54781128 17.01012439 16.23588994
H 23.40632201 18.27972528 21.26323550
H 23.01841128 19.70187917 20.72002815
H 17.14260501 16.08632496 22.83311030
H 17.41784635 16.57610224 21.31972592
H 17.29747923 20.99353906 20.27595473
H 18.72487379 21.69617452 20.23049529
H 17.16693880 15.79253882 19.10785216
H 17.91861186 17.08085368 19.55139961
H 19.83529633 19.42526867 21.40490617
H 21.28151276 19.51248864 21.93705217
H 17.79220010 20.18428749 24.10210828
H 17.91972317 21.60899682 23.60437898
H 21.57720489 17.01604459 19.46530494
H 22.54465931 18.05929576 18.88002100
H 21.59684961 17.06690348 22.36488329
H 22.48830281 17.64463347 23.58277173
H 18.73296928 18.46825282 24.89861916
H 19.78519379 19.07392880 23.76705055
H 16.44663781 20.71068389 22.23888612
H 15.91172086 19.75376669 21.07509255
H 24.77171838 19.98101526 21.78299610
H 25.57709958 20.88859924 22.83508281
H 18.55714909 19.36808824 19.81491242
H 19.67270821 18.35626702 19.40302600
H 20.77224476 15.23882891 21.68706299
H 19.49946933 16.14567610 21.92707167
H 19.92838967 21.40676300 22.44666784
H 20.29117134 22.80324215 22.91304930
H 20.10293692 17.18454763 17.62852483
O 19.29599461 17.32092779 17.13338831
O 23.75022624 19.01024659 20.64257767
O 17.84664003 16.50028221 22.30178556
O 18.16421133 21.05928422 19.75248367
O 17.15627616 16.45817461 19.80069305
O 20.40496108 19.84240677 22.14160189
O 17.21026750 20.92975908 23.72536306
O 21.62823640 17.64204431 18.67413865
O 22.26175121 17.79351822 22.67654028
O 19.05171615 19.23588474 24.40000841
O 16.01395483 20.68070306 21.32497115
O 24.71165833 20.75197310 22.42839077
O 19.01209718 18.52468472 20.08725894
O 20.45820061 16.12665293 21.72181137
O 19.57151586 22.29768149 22.45313186
45
i = 0, time = 0.0, E = 0.0;
H 17.78531884 16.20643298 18.33259007
H 21.24784912 19.72007170 19.00730232
H 22.58122635 19.72322959 18.17948911
H 18.81294625 14.76027791 24.18430157
H 18.09353468 15.70541636 23.07415378
H 17.95539906 21.53504254 19.90490405
H 18.50714505 22.94817969 19.63006309
H 17.25186055 16.10896859 21.05703354
H 16.51643712 16.99523718 22.04550925
H 22.37310225 21.69229983 21.47232230
H 21.90147471 22.78833159 20.45383942
H 18.73620042 19.31164804 21.59210858
H 18.56544658 20.82882974 21.81717551
H 20.42649005 17.45419955 20.52779491
H 20.94647962 17.95522360 19.16531224
H 21.73232221 19.39055351 24.45061179
H 22.23537767 18.05783354 23.83554053
H 20.55304879 18.26020371 22.60538627
H 19.38249853 17.19252191 22.76053964
H 16.64171997 19.16868340 21.78700518
H 15.09929147 18.96766314 21.47746167
H 22.67755752 19.71473428 22.21097615
H 22.83901583 19.73416584 20.59622331
H 19.25707874 20.98947410 18.77053926
H 19.03821692 19.67973822 19.51595404
H 21.79606554 15.62799430 24.02392908
H 22.08094167 16.21442701 22.63829313
H 19.26538911 23.38316980 22.90280051
H 20.40571688 22.64771780 22.05390466
H 18.87988353 16.76875814 19.37981582
O 17.88526842 16.48725029 19.25744700
O 22.20865945 19.37676830 19.01683321
O 18.98010481 15.32238024 23.39177286
O 18.03679456 22.20155839 19.20692921
O 16.97685625 16.11687204 22.01332379
O 21.67685461 22.42763024 21.32845186
O 18.25594121 20.13477547 21.26708225
O 20.60975554 17.07309791 19.66344283
O 21.96956258 19.05102774 23.58091992
O 19.75062512 17.90647267 22.12192040
O 15.82802319 18.61121152 22.03527033
O 23.07654999 20.21721792 21.44182573
O 19.55779855 20.01584615 18.78386762
O 22.34891598 16.31085146 23.57446045
O 19.57389404 22.51701849 22.57078623
45
i = 0, time = 0.0, E = 0.0;
H 18.70065556 16.62797138 18.80762092
H 21.15799911 17.86737763 21.32962727
H 22.11763237 18.06661061 22.56911393
H 15.92701686 17.19814221 22.58712992
H 16.64649923 18.15101086 21.64410587
H 19.03474500 23.55192467 20.66277795
H 18.78769497 23.53184118 19.16144607
H 16.98202949 18.32801838 19.41054742
H 17.26495189 19.63517107 20.20919442
H 22.23680827 21.61988161 19.54543404
H 21.18996623 20.52791428 20.05094528
H 20.28131752 19.74142352 23.37744642
H 18.86919196 19.10943231 23.07349353
H 20.31101674 15.40887057 18.14517210
H 20.92027447 15.68418514 19.61128822
H 20.43958701 17.47327549 24.61785543
H 21.52923518 16.60617546 25.28309795
H 18.15896766 16.85444243 23.08336715
H 19.76625486 16.84359447 22.60511570
H 18.80522346 20.53948191 21.49421897
H 18.50294253 21.58672924 20.22639623
H 22.63616461 20.54599427 23.93824784
H 21.97871375 20.66092194 22.49212869
H 19.74135370 19.45617446 19.95054604
H 20.44751394 17.98900567 19.46004415
H 21.63603596 14.74867361 21.28273686
H 22.28049593 16.13398379 21.01097358
H 20.24055970 23.39158047 22.10729332
H 20.93556465 22.92511115 20.76820022
H 17.36593864 16.78357534 17.83798046
O 17.76438865 16.79375253 18.73324849
O 21.58917505 17.38256895 22.07011210
O 16.70273236 17.77811357 22.57027607
O 18.34055100 23.19375932 19.96439754
O 16.50770022 18.99533765 19.96980625
O 21.54953325 21.42838892 20.18605487
O 19.38182878 19.91398114 22.97515630
O 20.26494122 16.04570599 18.90881755
O 21.11394892 17.45007204 25.35229191
O 19.11020994 16.57306451 23.29982662
O 18.67112799 20.55020652 20.50360854
O 22.33937275 20.02729355 23.15687657
O 20.59850992 18.85880623 19.95037600
O 22.15507600 15.17413849 20.60460856
O 20.56414226 23.72717659 21.20477661
45
i = 0, time = 0.0, E = 0.0;
H 18.77447470 17.25601968 17.93255751
H 23.93559904 17.96774201 19.47839586
H 24.13728872 17.33062210 18.09579707
H 20.49118371 16.41592606 21.88849508
H 19.04916602 15.97871815 22.14488872
H 16.72298054 23.89543593 22.73429029
H 17.91086765 22.84238607 22.93077230
H 17.57949133 15.93456261 20.05584713
H 17.11980346 16.60760655 21.32922015
H 21.40656180 22.68319168 19.58082563
H 21.54109957 21.54440480 20.58922467
H 16.73815808 21.04058507 21.96621816
H 17.70917197 19.84753848 22.39964370
H 21.75789132 17.79402471 19.46846489
H 20.46228391 18.66611627 19.76655854
H 20.97135974 19.61493670 23.33868927
H 21.31857660 20.12038608 24.76331215
H 19.52303857 17.85823403 22.46931851
H 19.76183961 19.28369459 21.69780653
H 16.37451145 18.72633890 21.64826082
H 15.73363463 17.73589505 22.63467554
H 22.65701989 20.06785787 22.17665244
H 22.15392860 19.45958513 20.79449272
H 19.76817953 21.09815385 19.74462214
H 18.35633284 20.39837438 20.12969432
H 21.64975554 13.95154336 21.07995818
H 22.40654459 14.77984426 22.12345420
H 19.72299887 22.58500999 22.72345575
H 20.45649367 21.56559839 23.60752473
H 19.64788562 16.57797313 18.94654470
O 18.82497307 16.49979423 18.47175969
O 23.53619125 17.31362123 18.86168660
O 19.88529516 16.36335420 22.67911437
O 17.11308278 23.02355696 22.35862664
O 17.67835484 15.87185022 20.99452972
O 20.85022517 22.11990585 20.17573782
O 17.06551049 20.17777320 21.68571394
O 21.01873184 17.94268837 20.11746663
O 21.55830026 20.26578580 23.84866711
O 19.45003823 18.93326744 22.52781976
O 15.99403666 17.80131771 21.73541270
O 22.71229601 20.17324286 21.16550640
O 19.25268239 20.16431555 19.77957275
O 21.94490624 14.88585833 21.31609623
O 19.70902654 22.22751792 23.61306087
45
i = 0, time = 0.0, E = 0.0;
H 19.45867883 18.11201974 16.58848244
H 22.38071588 17.91599980 20.64036199
H 21.26792241 18.70303959 19.80570599
H 16.19322436 17.88116343 20.15446431
H 15.34144951 17.66618958 21.48736265
H 20.47848558 21.94329756 20.67791258
H 20.86349639 22.76123775 19.39589784
H 17.31581854 17.50093789 18.20322026
H 15.76976880 17.45486671 17.73182670
H 22.59296068 20.10374070 23.96877150
H 23.70878307 20.26727096 22.95710368
H 19.63980266 21.33483463 23.64963303
H 18.18032409 21.00243741 23.07725989
H 20.86015148 16.28055476 19.33598470
H 19.47998120 15.81201326 19.94642843
H 18.92396321 19.07531396 24.37141187
H 19.15136532 17.85263320 23.41364790
H 18.16591134 17.21976109 21.65023608
H 19.39599462 18.04277830 21.11339261
H 16.99346720 19.69285329 21.21538385
H 18.38336690 20.27857677 21.10144585
H 20.84429639 18.26304739 24.45738348
H 21.97479726 18.05099298 25.54309350
H 19.78206710 20.20054476 19.45929699
H 19.38676947 18.74523859 18.80465938
H 21.55352672 16.56655921 22.15164698
H 22.26999070 17.50200972 23.20670000
H 21.89835032 22.22297810 22.86337542
H 21.33966578 23.65136916 22.48969288
H 19.56764763 16.95015071 17.63406210
O 18.96803353 17.71452900 17.38465194
O 22.11469653 18.08133510 19.69597507
O 16.25018466 17.97969652 21.17713858
O 20.33313615 22.01539702 19.70426547
O 16.38836098 17.30885768 18.49326216
O 22.89914267 20.74080577 23.30664365
O 18.75729500 20.84536461 23.84117274
O 20.02945997 15.83390811 19.11309524
O 19.39944232 18.15570511 24.29401617
O 19.18641513 17.20980843 21.70852629
O 17.53315916 20.46389528 21.43894377
O 21.84797709 18.39121413 24.64948806
O 19.66824379 19.23962615 19.63157612
O 22.35758342 17.09593135 22.32586994
O 21.02907991 22.72393330 22.63821100
45
i = 0, time = 0.0, E = 0.0;
H 18.31600080 16.61085849 18.86636413
H 23.42765235 20.45098211 19.26851281
H 21.98251145 19.79912281 19.30462404
H 18.76498323 16.37494829 24.26783550
H 18.35578825 16.50717761 22.78955471
H 17.58292120 21.43954088 18.30291986
H 17.93849609 21.67843760 19.73949221
H 17.63210548 15.99966573 21.05597043
H 16.50694629 16.82593295 21.65480571
H 20.64661742 23.44182979 22.41061907
H 20.50475365 21.87425879 22.51672164
H 18.32750522 19.61965528 22.42377617
H 17.26169596 20.76567538 22.19928163
H 23.16282584 17.92150337 19.61672414
H 23.60215371 16.62650098 19.03239728
H 22.68759043 18.27116712 24.16337779
H 22.34280633 17.13054670 23.04616688
H 19.46078900 18.14946703 22.83254311
H 20.87666073 18.74102238 22.70911564
H 16.14936501 18.96854001 21.37684534
H 15.76838401 18.95702293 19.87210418
H 22.40505696 20.73911217 21.51407480
H 22.54966395 20.27091893 22.82893674
H 19.52445199 19.67782774 19.30036967
H 20.27181351 19.02914114 20.61839140
H 20.94760090 15.80540231 21.65445915
H 22.31325671 16.37294435 21.08854119
H 16.93865750 23.01051974 21.23523859
H 18.45714082 22.60736768 21.74551242
H 19.40504884 17.51513794 19.63127269
O 18.99113171 16.57788066 19.55488597
O 22.91879509 19.72676779 19.72538265
O 19.12491027 16.66533602 23.43081506
O 18.24856991 21.24594897 18.91613644
O 17.13041370 16.10339772 21.91028927
O 19.96402119 22.72120059 22.43295770
O 17.36340926 19.77773503 22.43703657
O 22.85827276 16.96571370 19.57886342
O 22.49213440 18.12342165 23.20118575
O 19.91029309 18.92260760 22.39933201
O 15.54659704 18.50339558 20.71980966
O 22.34264115 21.07719591 22.42113063
O 20.24761528 19.02045397 19.59243115
O 21.92457751 15.89262451 21.85780272
O 17.63906876 22.34226692 21.22662290
45
i = 0, time = 0.0, E = 0.0;
H 19.88445699 16.83931495 17.91327493
H 24.09596744 18.42300138 20.35002710
H 22.97196767 18.21346668 21.48449052
H 16.97899660 18.00905587 23.92600614
H 17.26095801 17.07895096 22.72927927
H 17.73738469 21.18920183 17.87772079
H 18.39749959 21.43997956 19.33255167
H 17.27932647 16.55806013 20.24672306
H 16.44075416 17.61160096 20.93197100
H 21.01505392 22.78476076 22.07977217
H 21.26198380 24.19861505 21.63713127
H 18.61856080 20.32529817 23.30437565
H 18.21108348 21.09212571 22.06756310
H 22.26495593 15.22134188 19.87206080
H 22.64491566 16.81558861 19.69244725
H 21.12172082 18.32272317 23.17041955
H 22.33529600 17.64939461 23.97443375
H 18.91711628 18.13114361 23.10200016
H 19.68426323 18.73490083 21.90788598
H 17.02823740 19.99889910 21.74307636
H 17.06418078 19.82604808 20.17779178
H 21.67099240 20.21176957 22.59895608
H 21.22672489 20.63633109 21.12290017
H 19.21869079 19.46727586 19.56311409
H 19.78544885 17.98615242 19.81286500
H 22.20419020 14.25314214 23.35735173
H 22.00192502 15.39860712 22.40920972
H 17.71770696 23.19862431 21.15918857
H 19.30577400 23.05279988 21.05058874
H 20.38899524 16.08876986 19.11357766
O 19.49950172 16.49529452 18.75806102
O 23.19661297 18.13758655 20.46667885
O 17.62701398 17.36358915 23.63789628
O 18.26869826 20.76819354 18.59909216
O 16.67232184 16.64537576 21.00686539
O 20.52299452 23.68052316 22.07708531
O 17.80745019 20.75984685 22.93897870
O 22.22942339 16.00883099 19.25511270
O 22.11307223 18.31465734 23.18498697
O 19.71666851 18.74897527 22.92721217
O 16.76342949 19.37997486 21.00990970
O 21.36489445 20.96816859 22.03314839
O 19.79310834 18.95704206 20.17034063
O 22.68198411 14.79990089 22.69632576
O 18.40596989 22.79078955 20.60252650
45
i = 0, time = 0.0, E = 0.0;
H 20.01596658 16.47289459 19.02951580
H 20.84160691 19.30454409 20.86384847
H 22.23107063 19.65996958 21.34722443
H 17.43585829 14.45880780 21.42775695
H 18.67401151 15.10713389 20.48345564
H 20.84774675 21.83607840 18.67636790
H 21.41927199 21.20138924 19.90456340
H 17.11521040 17.96681570 17.74406191
H 16.47024804 17.94573272 19.13478718
H 21.57209056 21.64293857 23.57456590
H 20.84306614 22.73297442 24.34172007
H 17.29828315 20.92931161 21.96732732
H 17.99483419 21.73785525 20.84900413
H 21.95348906 17.61565790 19.04769759
H 22.24780736 16.17194096 19.43132068
H 21.67543873 16.99518251 23.42905189
H 22.27176826 17.13449768 24.92863794
H 20.00391272 19.28035659 24.56474783
H 19.46381472 18.80515974 23.35690904
H 14.95795738 19.93311954 19.74429405
H 16.52645751 20.13946251 20.10275889
H 22.52258764 19.49562556 23.84301068
H 23.85750729 19.98880815 23.50036858
H 18.56581456 19.26856603 21.53713908
H 18.97684242 18.12525239 20.60193390
H 20.20689782 16.77807242 22.06076661
H 20.32473249 15.31774027 22.31711435
H 19.89259701 22.50641664 20.62199558
H 19.53301227 22.34210747 22.08713089
H 18.32348136 16.60587152 18.80711755
O 19.09690872 16.41651749 19.46441105
O 21.72208684 19.61843901 20.51669975
O 18.38260801 14.70076111 21.39820490
O 21.35170113 22.09470370 19.50353834
O 16.87539381 17.32475010 18.46257586
O 20.71365327 22.01782039 23.71262609
O 17.57361336 20.79534482 21.04850807
O 21.64730988 16.69189157 18.85535469
O 22.06887002 17.61949863 24.10893272
O 19.10233732 19.10523196 24.20461420
O 15.87751664 19.66707837 19.37774517
O 22.93227176 20.36660384 23.51707399
O 19.32808016 18.60974804 21.43263726
O 20.85291343 16.13653419 22.38113513
O 19.18020210 22.73300043 21.27825815
45
i = 0, time = 0.0, E = 0.0;
H 21.26865756 17.73252498 17.43016074
H 21.43617477 18.83639098 20.13495407
H 22.80138869 18.76409551 19.32999331
H 18.48429591 18.12180429 21.33817532
H 17.00215947 17.69943311 21.69548987
H 17.86098585 21.32365841 20.03020633
H 19.34912973 21.81356732 20.29873901
H 16.33482536 18.93468243 19.85175392
H 15.00773894 18.24126191 19.74097903
H 23.53537027 21.66140663 21.54652515
H 22.73649859 20.64357639 22.41393491
H 18.82210837 20.25565302 23.63203159
H 19.14383056 21.59021955 22.74816343
H 20.44816574 15.56754273 20.17456450
H 21.56862649 16.52775029 20.11014572
H 20.91075238 16.41559778 23.22638247
H 20.45380433 17.45274870 24.26938678
H 18.04343147 18.41687765 24.99020729
H 18.40370403 18.14084102 23.59001766
H 17.02817420 20.84839653 21.70463882
H 15.58187203 21.26600401 21.35235202
H 22.07479709 18.89847977 22.94492337
H 22.82301493 18.86830157 21.59460669
H 19.14030242 19.71773422 19.91653507
H 19.30072715 18.29372138 19.29646430
H 19.50327537 14.58362719 22.26247406
H 18.88848727 16.10538960 21.93894189
H 20.70926764 23.59660047 21.82793278
H 21.47751667 22.17634208 21.65012007
H 20.65542491 16.68963555 18.31642572
O 20.35969785 17.40315447 17.61716004
O 22.33515474 18.39559434 20.08569146
O 17.93252984 17.74434605 22.07782104
O 18.78342884 21.16304787 19.75080025
O 16.00346290 18.03105380 19.89032454
O 22.80217620 21.67492839 22.17593031
O 18.43025067 20.89871768 23.00272107
O 21.21862554 15.77529107 19.59154493
O 21.18020473 17.26826479 23.69133754
O 18.83137542 18.31858007 24.46524587
O 16.40978817 20.89539290 20.92260284
O 22.86566459 19.29913690 22.54139008
O 19.54113144 18.75568442 20.10769569
O 19.65807849 15.45840574 21.86485294
O 20.55984911 22.71025292 21.47524169
45
i = 0, time = 0.0, E = 0.0;
H 20.27146126 15.29349069 18.77698510
H 21.18757885 19.07777912 18.96546016
H 22.71453340 19.27745058 19.43742332
H 18.88851223 16.36922669 20.29782562
H 17.63917823 16.97757286 21.23166801
H 19.57185315 21.94610483 20.76401249
H 19.75932707 22.47198778 19.25328119
H 15.42606987 17.01793691 21.13940108
H 15.92360126 18.08466390 22.02768643
H 21.85637454 19.02814170 21.64543952
H 22.76634322 19.95454583 22.35733290
H 15.02334217 20.40319528 22.59416375
H 16.19926435 20.51283853 21.78016098
H 22.99067904 15.95870669 19.62058394
H 22.40144286 17.40457599 19.27582329
H 20.60152522 18.35902000 24.56698712
H 21.38588929 17.54310598 23.56572402
H 18.96862251 18.39698632 22.43252635
H 18.01486370 19.10381596 23.47220471
H 17.32733190 21.96504054 20.08506821
H 15.70201923 22.04980315 19.99040263
H 22.52418576 19.48624769 24.37049459
H 23.98774236 19.34663453 24.34484357
H 19.27895129 20.02140997 19.69564649
H 19.27752530 18.49909286 19.97523852
H 20.27689024 17.15590768 21.70877813
H 21.66059795 16.88206273 21.01489093
H 21.02160298 20.96293664 22.10690151
H 19.56704107 20.47407803 22.48464149
H 19.37612218 16.41151554 18.19943109
O 19.33420390 15.62797520 18.74704929
O 22.17473071 18.89083911 18.74146093
O 18.60210982 17.08450471 20.87612843
O 19.11555970 22.16467959 19.92232062
O 16.15355980 17.15858805 21.83371891
O 22.20678858 19.93457750 21.51632551
O 15.95283245 20.01033291 22.61380264
O 22.11346864 16.45306544 19.65057319
O 21.53423951 18.12026119 24.40690480
O 18.95854704 19.06401161 23.14739588
O 16.46613667 21.61883759 20.43798055
O 23.30688933 20.02277212 24.14879430
O 19.66226001 19.19110457 19.32234835
O 21.25431329 17.33136556 21.86794480
O 20.02563021 21.29207045 22.16472119
45
i = 0, time = 0.0, E = 0.0;
H 20.54143479 17.31788140 19.78008678
H 24.15828507 17.36285577 19.04933161
H 24.48667782 16.31089850 20.03415815
H 17.31005967 16.32513821 23.20397836
H 16.63553623 16.47197737 21.74014948
H 17.52651317 21.86910467 19.20816013
H 18.60547506 22.56522282 20.08867579
H 18.57858123 18.11111377 20.50708113
H 17.52564568 19.31302623 20.67570490
H 21.99800887 20.05279134 21.62723754
H 21.09303868 20.36214285 20.41822185
H 18.00813616 22.07735075 22.73459332
H 17.85261833 20.55063127 23.14678764
H 20.64133633 16.04870786 21.22816244
H 21.69394493 17.23068213 21.29757869
H 20.61279424 16.36081704 23.49423794
H 20.69410289 17.82941848 23.98296508
H 18.73825700 18.99681159 22.57608688
H 20.01426965 19.81385811 22.71222409
H 16.46481308 21.08934434 21.67399108
H 15.31670291 20.64332210 20.79987215
H 23.07152803 17.95749059 22.79274887
H 23.72088680 18.29894464 21.31663942
H 19.78339071 20.99415160 18.73394129
H 20.25027660 19.56262023 18.76217861
H 19.47857923 14.07760888 21.27366740
H 18.38117570 15.03041574 21.97324418
H 20.16882617 23.15416493 22.45662872
H 20.21093564 21.69849577 21.65671343
H 19.38001613 17.36932745 18.51829761
O 19.76515996 17.79998093 19.34033471
O 24.53058652 17.29588259 19.93938785
O 16.86374786 15.83743744 22.45680168
O 18.45282126 22.31958090 19.12078463
O 17.88907026 18.51037132 21.08040630
O 21.08837329 20.43150012 21.42454805
O 17.32032370 21.36088054 22.99875909
O 21.32368871 16.56404663 20.71668706
O 21.22113962 16.97358886 23.89385636
O 19.32476370 19.39773739 23.27501249
O 16.25587699 20.99247058 20.67443873
O 23.17159435 18.64012143 22.07547490
O 20.60341536 20.43566809 18.74423910
O 19.37621326 14.91453952 21.78350128
O 19.58935289 22.59132767 21.85545008
45
i = 0, time = 0.0, E = 0.0;
H 19.46639139 16.21587800 19.02599011
H 21.43043504 18.92879211 19.71790517
H 21.77521094 19.06979793 21.21147230
H 17.51222484 16.61590240 22.05825788
H 17.18538352 16.73025777 23.63406112
H 17.64199210 20.47480823 20.13394059
H 18.34536739 21.66653264 20.78829046
H 17.19974750 16.40351238 19.92853668
H 16.24448752 17.42083840 20.55316676
H 22.09830085 21.20761637 22.46365741
H 21.15392287 21.19655810 21.15163070
H 16.40845357 21.65436395 23.91880902
H 17.40432604 22.35523951 22.92539041
H 22.00287762 17.16694923 18.93408073
H 21.40461236 17.32410234 17.56529026
H 21.65013282 18.05198952 23.56944897
H 22.70282310 17.18792306 22.76712361
H 19.26388733 17.98283608 23.53438611
H 19.84699771 19.24458990 23.04102302
H 16.49857079 20.23094300 21.51099338
H 15.43662197 19.90785762 20.37329162
H 23.23205233 19.59028241 23.05633992
H 24.40454447 20.53251657 23.01148220
H 19.46774889 20.00438697 18.98385265
H 20.22778318 19.61444091 17.68010823
H 21.94575195 16.71889899 20.77594139
H 22.30056582 15.18874475 20.58761498
H 19.09021812 23.73151008 22.29146632
H 19.90075907 22.20524269 22.49763292
H 19.08735022 17.62937328 18.67126444
O 18.68170235 16.73548829 18.76376950
O 22.11578710 18.59463324 20.43641347
O 17.90774821 16.81059004 22.93777720
O 18.48266678 21.01471208 19.96472155
O 16.57017986 16.49246336 20.71132897
O 21.19788209 21.09011574 22.14361062
O 16.57752195 21.75235034 22.96016950
O 21.91061370 16.68462225 18.08027146
O 22.66962421 17.82320817 23.48430582
O 19.91340558 18.63726693 23.78750502
O 16.30447420 19.53253545 20.76353782
O 23.43337090 20.53927918 23.12621776
O 20.06280652 19.26503543 18.57965188
O 22.01032041 15.88874816 21.24666680
O 18.97660152 22.73745501 22.46309557
45
i = 0, time = 0.0, E = 0.0;
H 19.52602937 17.93342338 17.96581784
H 22.84745975 20.39316333 19.73980693
H 23.30923999 19.96904944 21.16898848
H 17.56379421 15.09533804 22.19144407
H 18.16718861 16.26951905 21.39577353
H 18.45899105 20.53119910 19.32175285
H 19.57181975 21.63676659 19.83485134
H 18.52299155 16.45679065 18.90479711
H 17.88013763 17.56678671 19.75780850
H 21.17271785 21.78301667 22.97359697
H 20.28463178 22.71497582 23.80672598
H 17.23400961 19.46673040 22.93389945
H 16.06892061 20.62335963 23.28933869
H 21.61707582 16.44480363 21.06335771
H 22.29463207 17.59472895 20.23905242
H 20.19078646 17.88555491 24.23827695
H 21.24764652 17.07783089 23.64289075
H 18.07475518 17.61504952 23.70897320
H 19.07280038 18.49703589 22.76930080
H 16.61988330 19.82784160 20.61416304
H 16.11192490 20.35515134 19.27104195
H 21.24880026 20.10084069 21.96540143
H 21.89240607 19.39122100 23.22004124
H 19.71340368 19.55296707 20.45808739
H 20.35954421 18.05048306 20.88693901
H 19.84693055 15.53605134 22.28499676
H 21.13644843 14.84891550 22.61741014
H 19.58636229 23.92389600 20.08747149
H 20.39377703 23.15552279 21.29288076
H 20.64161261 17.02253134 18.56003179
O 19.94629851 17.04441853 17.86862610
O 23.31257305 19.72246534 20.23901558
O 18.14405428 15.85585695 22.27263006
O 19.40851074 20.76476676 19.38787343
O 17.86220429 16.61328356 19.62692263
O 20.87784883 22.78730832 23.03243142
O 16.52226554 20.10737118 22.56206908
O 21.61250739 16.90947483 20.17303955
O 21.17648155 17.89646251 24.18560342
O 18.54138508 18.46802887 23.64897250
O 16.79874556 19.69864902 19.63317777
O 21.90272357 20.28772194 22.67019565
O 19.90393060 18.92144702 21.19288696
O 20.83176459 15.71992456 22.37822199
O 20.07880603 23.11206857 20.33528621
45
i = 0, time = 0.0, E = 0.0;
H 18.52750643 15.29280813 20.19141861
H 21.93164140 18.14976892 21.87617985
H 22.77470300 17.61430838 20.49282913
H 16.10459628 16.83511446 21.45484679
H 16.04726701 16.51500406 22.97509394
H 18.07052963 21.08240371 19.37290552
H 19.30492191 21.52080450 20.30547871
H 15.62649555 17.68753529 19.45192498
H 16.43941114 16.42980915 19.18674367
H 22.58382051 21.90713383 21.42250282
H 22.32254610 22.97350246 20.32362733
H 18.31545906 19.10382201 22.23869418
H 18.31004964 20.58846650 21.96109447
H 24.25102529 15.17970354 20.80300583
H 24.82427379 16.13693423 19.62404807
H 21.08440649 20.04854875 24.82998308
H 21.84048672 21.35832095 24.71863681
H 18.38470897 17.18439755 22.18376522
H 19.53479818 17.80823882 21.18588165
H 17.05064808 19.65510996 20.26104173
H 15.66687011 20.37140882 20.32869891
H 23.28585900 19.91204303 21.59436300
H 24.63178294 20.54458557 21.82065708
H 19.56609901 19.23572596 19.52739450
H 20.84251153 18.36957619 20.08255305
H 20.34525614 17.92289923 23.17763326
H 21.42064909 17.54733507 24.31021798
H 20.35797680 22.13832329 21.84240214
H 19.69767988 21.81238447 23.22959661
H 19.02050697 16.61688506 19.49013695
O 18.33828260 15.86773746 19.44429225
O 22.32939214 18.44840094 21.02290268
O 16.66277077 16.53936689 22.26837186
O 19.02024154 20.93531601 19.51540650
O 15.55373028 16.71541150 19.52201838
O 21.87922761 22.43195980 20.92969392
O 17.75734436 19.80170206 21.93856973
O 23.97326072 15.84945307 20.09520231
O 20.96911892 21.02986147 25.01266590
O 19.34293869 17.40448124 22.10779021
O 16.30774816 19.90388507 19.67775757
O 23.66736549 20.71899078 21.97644115
O 19.95716976 18.30780725 19.68912651
O 21.06748697 18.33182985 23.76894581
O 19.62100286 21.60903514 22.23408577
45
i = 0, time = 0.0, E = 0.0;
H 19.45954997 17.38232070 18.46856128
H 23.43540873 19.40489206 19.74463344
H 22.01871180 19.73122968 18.96701654
H 19.22570663 15.16363736 22.21340873
H 17.73170766 15.14299662 22.75330097
H 18.53298563 22.53077880 20.86720171
H 17.49042987 21.74057803 20.00608257
H 16.67112586 16.97467998 20.21476300
H 16.41887443 18.42262742 20.07865175
H 21.88057932 21.15167211 22.16584251
H 21.20389966 21.36461851 20.82260286
H 18.10737146 19.45174293 22.76182760
H 18.13486263 20.98234128 23.04636073
H 21.31807516 16.62327868 19.95434297
H 22.57388149 17.52604175 20.04851340
H 21.07300386 18.04690032 23.95763515
H 21.51246975 17.46830236 22.68760652
H 18.77266688 17.30610494 22.30387861
H 19.53298660 18.16319397 21.25617644
H 16.44197350 19.83653557 21.97566163
H 14.92709670 19.56956393 21.61329046
H 22.40726828 19.10835329 22.90666409
H 23.07027181 20.33993370 23.56030044
H 19.78269975 20.93977597 19.31303905
H 20.20627263 19.40715238 19.26500366
H 21.38165652 15.43762731 21.36218174
H 21.22037358 14.78779003 22.84566996
H 18.98210658 23.05803229 23.48911502
H 20.19630941 22.31879697 22.48406650
H 18.46812626 17.67373713 19.55809692
O 19.49613733 17.67995986 19.42159620
O 22.70076334 19.02642708 19.19484963
O 18.32409619 15.59797991 22.15903539
O 18.32923533 22.26425101 19.93474444
O 16.72635976 17.62331099 19.52244344
O 21.36127249 21.85407788 21.66477404
O 17.56945282 20.18998121 23.08138844
O 22.15580012 16.71853154 20.57928896
O 21.91355515 17.59935979 23.57852174
O 19.09607661 18.22986348 22.15070604
O 15.83465363 19.48604904 21.21896531
O 22.85312469 19.93466701 22.66516473
O 20.56890428 20.36060246 19.19693213
O 20.74347869 14.96544586 22.03492758
O 19.15131421 22.39545632 22.77295793
45
i = 0, time = 0.0, E = 0.0;
H 18.52179896 16.96030004 17.70959404
H 23.75972999 19.50850332 19.57629360
H 22.86989336 19.07222544 20.69690091
H 18.72323577 15.27231768 22.48046979
H 18.91137133 14.60592365 21.11078086
H 17.64911155 21.90701659 20.56118076
H 18.83728839 22.66288086 21.25896095
H 18.80246692 13.61990219 19.32644141
H 18.55530640 15.01991954 18.86180273