      24
 i =        1, time =        0.000, E =      -137.7314797205
  H        18.4799839200       22.8221547400       21.0205347900
  H        17.7545580900       21.0739247400       19.3729158100
  H        17.4739654500       19.6905585200       20.0234350500
  H        16.9814897200       17.6911980400       22.9632369700
  H        16.8974820000       19.0886534300       22.1455191400
  H        22.4157322900       19.3166928500       20.7944491900
  H        23.6268033600       20.2587907300       20.6224416800
  H        15.2364075400       20.8079112100       22.0418144200
  H        16.7852721300       21.2872637900       21.6283514500
  H        19.5240008300       17.7641208000       18.5583638300
  H        18.9303174500       19.1792579200       19.0760889500
  H        19.3567450600       18.2046472200       21.8061012300
  H        20.3021387500       18.1657833600       20.6640759600
  H        21.1255765400       21.1325482000       21.5105294900
  H        20.3266124300       20.1395595000       22.2586558900
  H        18.9665066800       21.5064980400       21.6153124300
  O        18.1722321600       21.8709546600       21.1389369400
  O        17.5091117100       20.1240915600       19.1531561700
  O        17.3527331100       18.1300701100       22.1552063200
  O        22.6500882300       20.2464976300       20.6796269800
  O        16.2113324200       20.5255408200       22.1308620000
  O        19.6604917400       18.5313715500       19.0872540000
  O        20.3150745200       18.2839014800       21.6726886800
  O        20.3847467700       21.1270562300       22.1330960700
      24
 i =        1, time =        0.000, E =      -137.7341109853
  H        17.9791716500       22.4451544000       22.0631165400
  H        17.8353212200       20.7876152500       20.2094378700
  H        17.2854035200       19.2509964500       20.2353016500
  H        17.2350200900       16.7110728000       21.4033015300
  H        16.9709636800       18.0119040900       22.0534007800
  H        21.1669990400       22.2738195000       19.2967623000
  H        21.3911390000       20.8359682400       19.5893882200
  H        16.6876922100       20.2523729400       22.9254390400
  H        15.8609827200       19.6419731900       24.1685417700
  H        20.1651474800       18.9232809000       18.1343760400
  H        19.1726987400       19.7757974300       18.9052713600
  H        19.4741192200       17.7901127400       20.7951839900
  H        20.6108297100       18.5510789200       19.9991910900
  H        21.1971719400       21.1799712700       21.8491191000
  H        20.6768120600       19.8571986500       22.6037512500
  H        19.0399011900       21.3745565900       22.4149886600
  O        18.1358739900       21.4266146200       21.9979456000
  O        17.7100116200       19.9863407700       19.6186898200
  O        17.1858001500       17.6416536200       21.1209060200
  O        21.5581278800       21.7271608300       20.0017066400
  O        16.3773560600       19.4047743700       23.3259938300
  O        20.0758060300       19.8295144500       18.4848883000
  O        20.4259710600       18.0262776300       20.8235509000
  O        20.8772253300       20.8265510300       22.7428249900
      24
 i =        1, time =        0.000, E =      -137.7357552961
  H        17.8994453900       22.2938945400       20.3146893600
  H        18.2293512200       19.7560224700       20.2168379500
  H        17.4572719700       18.3201776600       20.3236894700
  H        15.1970956800       17.9000950500       21.4553690500
  H        16.4379050300       18.6801163900       21.9805886400
  H        22.8255279900       21.2559364100       19.7325792800
  H        21.4054127500       20.7244595700       19.5328947400
  H        17.0436908400       20.8692420400       22.0765313500
  H        18.1360092500       19.8509061300       22.5237737500
  H        20.0844386000       19.9417623200       18.3042868500
  H        19.8737322100       19.0080999300       19.3879086600
  H        18.8942085400       18.4944766800       21.5418199900
  H        20.2800786300       17.9753160600       22.1212595400
  H        21.0390623100       21.7063399500       21.8652003500
  H        20.2441568300       20.4711596100       22.5354649700
  H        19.1149613300       21.5347673300       21.0797102500
  O        18.2646961900       21.3967676100       20.4787652500
  O        18.2982376300       18.7640002400       20.0467071400
  O        16.1755521100       17.8661265300       21.4757134500
  O        21.9450465500       21.4125429000       20.0572304100
  O        17.2012474400       20.1189979600       22.6876012100
  O        20.6669042000       19.2501122300       18.7654414900
  O        19.4902837900       18.5229869500       22.3389349400
  O        20.2151812100       21.4667948600       22.3703186200
      24
 i =        1, time =        0.000, E =      -137.7451857325
  H        17.9535285500       22.8774393000       20.9873892700
  H        18.0570023300       20.6607090300       19.8312954500
  H        17.6560097300       19.2376450800       19.7078426900
  H        15.7151969900       17.5427826400       20.9583347600
  H        15.7808931800       19.1542990100       21.1914047100
  H        23.2069181900       20.7663329400       20.1883431900
  H        21.9980289400       19.7445276900       20.3337065200
  H        16.1600786900       20.6872790800       23.1149902300
  H        16.5166135100       21.1189117200       21.6940273700
  H        20.7512050900       17.8671543700       19.0808409400
  H        19.8655729400       19.1870771400       19.4351392600
  H        20.6211787700       18.0656279800       21.4709339700
  H        21.3572239600       17.9910125100       22.8732376800
  H        21.0259676200       21.2000849100       21.5650783700
  H        20.0967878100       20.0692437100       22.2533790400
  H        18.8353306700       21.6558148300       21.5097953700
  O        17.8590045800       21.9139885600       21.1725763700
  O        18.3564574000       19.8101469600       19.3398351600
  O        15.7941910800       18.3940289400       20.5231942500
  O        22.5588157500       20.4580285200       20.8317168400
  O        16.2193964800       20.3117313300       22.2182251100
  O        20.7861198400       18.6833476700       19.6039597000
  O        20.4539766000       18.2088682500       22.4465713300
  O        20.1387648500       21.0784731400       22.0088315400
      24
 i =        1, time =        0.000, E =      -137.7480937294
  H        17.8683867800       22.3865018800       21.7841929100
  H        17.9777932700       20.4411994800       20.4135011900
  H        17.3704606700       19.0577823900       20.1249471500
  H        15.4974716900       17.2124820600       21.0378525300
  H        16.0783368400       18.3214876100       21.9271430300
  H        23.3299093300       21.4644702300       19.9540929800
  H        22.1182565000       20.5052911600       19.4743442200
  H        16.6276453200       20.5333712500       22.7681750700
  H        15.1620893400       20.4308513800       23.3051330100
  H        20.5283765200       18.3571517400       18.1388999800
  H        19.6594559700       19.2647531200       19.0125239300
  H        19.4651228800       18.5269773500       21.4880709800
  H        20.8436560000       18.2283459000       20.9770664200
  H        21.2717225800       21.2350112200       21.3378533200
  H        20.7006328200       20.1929410200       22.3759791300
  H        19.0604528000       21.4540226400       22.0794394600
  O        18.0788338500       21.4504912900       21.8391804600
  O        18.0422710900       19.6558518600       19.7867213500
  O        16.3099897300       17.6083572600       21.2824594800
  O        22.4090973600       21.4116337100       19.7506781400
  O        15.7599224400       20.0904431500       22.6346132900
  O        20.6204247700       19.0214167500       18.8842966600
  O        20.3882539300       18.4539722900       21.7917347800
  O        20.6863208100       21.1798859000       22.1750071200
      24
 i =        1, time =        0.000, E =      -137.7269243208
  H        18.6396088200       21.6151733800       19.5153618300
  H        18.9206926100       19.4470609400       20.5052905400
  H        18.1844535100       18.0895893600       20.4364465000
  H        16.1044142200       16.7376803600       21.5711021800
  H        16.6593799200       18.2500598000       21.5756914100
  H        21.8997859400       20.3122046300       21.1111393900
  H        21.4857911400       20.5090127300       19.5226127300
  H        15.2517102700       20.7209770200       22.0293537400
  H        16.5382786000       20.3447659000       21.1935743300
  H        20.6075793100       19.4544704500       17.4934203500
  H        20.0133486100       18.7542080600       18.7786296700
  H        19.8749298300       19.0261003700       22.0682164600
  H        19.2134148800       19.2875428900       23.3188084000
  H        20.5894366400       22.0789872500       21.7796755500
  H        19.7536505600       21.3610033100       22.8536531800
  H        18.5561871600       21.5665527600       21.0376970500
  O        18.2467338300       21.0766851500       20.2049406800
  O        19.1230133000       18.4704951500       20.5175072900
  O        16.9422954500       17.2954384000       21.4995983200
  O        21.7651208000       20.9634497000       20.4123230700
  O        15.9647788700       20.0110123200       21.9451967900
  O        20.4723312400       19.5508718000       18.4167470100
  O        20.1288144900       19.3178924300       22.9394153700
  O        19.7318587400       22.1898143000       22.2977064200
      24
 i =        1, time =        0.000, E =      -137.7426560322
  H        17.4950438900       22.6801249100       20.8164080800
  H        18.3689282000       19.7541644300       20.2051191900
  H        17.9562086300       18.2905789100       20.5518248400
  H        16.3317057600       16.7464956700       22.0491010300
  H        16.5305316600       18.2675599800       22.3080354000
  H        22.7970390300       20.8485083500       19.8425069500
  H        21.5993742800       20.1512868400       18.9952538700
  H        16.3873958500       20.8030228200       22.1693940900
  H        15.6338837700       20.6474460400       23.5104470600
  H        20.3593053300       18.7573618200       17.1618115500
  H        19.8072520200       18.6416842200       18.5786670100
  H        20.4405197500       18.6901123100       21.3817998200
  H        21.5929367300       19.4897060500       21.5579855800
  H        20.5650448000       22.0548029700       21.6630897200
  H        20.2428693400       20.7394237600       22.3186734800
  H        18.3852570000       21.7800860800       21.6612226300
  O        17.4686701900       21.8117697400       21.2199552200
  O        18.6328980000       18.8169097400       20.0800365000
  O        16.8897906200       17.5050519200       21.8205405000
  O        21.8317504200       20.6354548500       19.8285748900
  O        16.0929691200       20.1430908900       22.8049306200
  O        20.5005282900       19.1338524000       18.0692238500
  O        20.8643575200       19.1372687400       22.0989480500
  O        19.9553339600       21.6426784100       22.3124433900
      24
 i =        1, time =        0.000, E =      -137.7228857939
  H        17.5471765400       22.8968704300       22.3295549600
  H        17.2185205800       20.0466469600       18.5903557000
  H        17.8783517500       19.4415909000       19.8676533600
  H        17.0165858500       17.6922419200       20.6248278200
  H        16.8611323100       18.7496121900       21.9117173600
  H        22.7592811200       20.2752843200       20.8061503000
  H        23.0344427500       21.7947235300       20.5501788000
  H        16.2824005200       20.5942777500       22.6259805000
  H        14.8921047900       19.9551723300       22.1613682400
  H        21.6821691000       19.1723510100       18.9706459000
  H        20.3745683100       18.7739286500       18.4296326200
  H        20.1932250800       17.9021656600       22.9381845000
  H        19.1758287400       18.1035556100       21.8131640800
  H        20.7272857400       21.0870468700       21.5273837700
  H        19.7347822600       20.0832809500       22.2532165800
  H        18.2658173300       21.6545028400       21.8839728300
  O        17.3530289800       21.9897789200       22.0390986100
  O        18.0961855000       19.7417667400       18.9088022500
  O        17.4523978700       18.3287021600       21.2051055800
  O        22.3502181000       21.1417397700       20.5929809500
  O        15.7550756600       19.7770184200       22.6560011700
  O        21.2449440600       18.4197715700       18.5282781500
  O        20.1199066400       18.3507568500       22.0464928400
  O        19.9180709000       21.0840468300       22.0995868100
      24
 i =        1, time =        0.000, E =      -137.7363895940
  H        19.1586935900       22.6690565000       21.0112215100
  H        18.6647415600       20.1368677400       20.5646136100
  H        17.8632995000       18.8333869800       20.7348083900
  H        15.7104735800       18.2422534800       20.6352302200
  H        15.9202989700       19.5241978100       21.4096775800
  H        22.4030365700       19.8582307200       19.6189241100
  H        21.4049586700       19.3948384100       20.7205880400
  H        16.9400479300       21.5740853000       21.7157525600
  H        15.4728842800       21.9344786800       22.1403484200
  H        19.0670806300       18.3839605100       18.0499573800
  H        20.1425604600       19.3087754200       18.6174710600
  H        19.7514509700       18.3503772200       21.6994963500
  H        20.3350365100       17.1673262000       22.3512377500
  H        21.2452121900       20.9646904100       22.3350812300
  H        20.4445124000       19.8440422300       23.0204678400
  H        19.2814792000       21.3682695900       21.8971807100
  O        18.5811718800       21.9035050900       21.3041206200
  O        18.7845286100       19.1215190500       20.4385039100
  O        16.2674104400       18.5919271200       21.3736085800
  O        21.6414055100       20.1560434400       20.1618614200
  O        16.0428264400       21.2221810000       21.7922398300
  O        19.8628245300       18.9061606400       17.7841212500
  O        20.5742107200       18.1341732600       22.2882955300
  O        20.5252370200       20.8401844300       22.9815998400
      24
 i =        1, time =        0.000, E =      -137.7207097929
  H        17.3984645600       21.4868651900       20.8787883000
  H        18.2361168300       19.6525066200       20.0127089200
  H        17.9234740600       18.1133682400       19.7059865200
  H        15.0656507600       19.2702377200       20.3208123800
  H        15.7197009900       18.9719451000       21.8050468200
  H        24.1708181000       20.4973812400       20.5832450400
  H        22.9397003600       20.8589185600       19.5988780300
  H        16.2309674000       19.9372089400       23.9425510900
  H        17.1921913700       18.8584477700       23.4189463600
  H        20.0802694700       20.8137894500       18.4229404300
  H        20.2498704600       19.3165685700       18.5636948200
  H        19.9333910200       18.0256245700       23.3783564200
  H        19.2374815700       18.3673772000       21.9412228500
  H        21.2512669500       21.2185701000       21.7669505800
  H        19.9278928100       20.4831651900       22.5004539600
  H        19.0034944200       21.4882937500       21.0306762600
  O        18.2126665600       21.3049826200       20.3289907700
  O        18.6389232300       18.7395340500       20.0020904600
  O        15.6274787300       18.6843104600       20.8605387100
  O        23.4465018400       21.1231730000       20.4031675600
  O        16.2447707600       19.0662657200       23.5382143200
  O        20.5602934000       20.0792516300       18.0170137000
  O        19.2647317400       18.6305019000       22.8968346900
  O        20.2366819400       21.2599332500       21.9924957400
      24
 i =        1, time =        0.000, E =      -137.7432618299
  H        18.1239471200       22.3633467600       20.6802764000
  H        18.0281334700       19.5675093700       20.2979914600
  H        17.4970337700       18.1474328600       20.5600705800
  H        15.6719279500       18.6647652400       21.8394337300
  H        15.2792419500       17.1947411100       21.9145830000
  H        22.9117620800       21.6150237600       20.4478384000
  H        21.7124531700       21.0924857600       19.6975693800
  H        17.0616356100       20.5789165000       22.2339647100
  H        16.4798168400       19.8523461800       23.5077079800
  H        20.6686441300       19.9478100600       18.0659894500
  H        20.7395885500       19.2748775200       19.4693873000
  H        19.7148581700       18.4522230400       21.4207952800
  H        20.9376508300       17.5142388500       21.5386393600
  H        20.8949353600       21.3014035800       21.7729687400
  H        20.3603528200       20.1092123500       22.6097617100
  H        18.8507908900       21.2988865600       21.6614794200
  O        18.0887731500       21.4112726900       20.9910118000
  O        18.2848167900       18.5966532600       20.2862505600
  O        15.4803731700       17.8769995400       21.2476701800
  O        21.9526014700       21.8398404500       20.3479832700
  O        16.2657735300       20.0933415000       22.5584980400
  O        21.3092814200       19.5641570200       18.7197279400
  O        20.6763000400       18.4673460500       21.4778579900
  O        20.1506897900       21.0626017100       22.4199732900
      24
 i =        1, time =        0.000, E =      -137.7312416186
  H        17.7210653300       21.6795358400       20.0177576100
  H        18.5454963300       19.6523142700       20.0087273200
  H        18.6229414100       18.1425216300       19.8308853900
  H        16.7491399100       17.6852319500       20.9134866600
  H        16.1778561900       17.0637535900       19.5983199800
  H        21.9360326500       21.2707519800       20.2230617600
  H        22.6050767100       22.7051065000       20.0781367500
  H        14.7669091100       20.2456070200       21.7842271700
  H        15.3790093100       19.8310008600       23.1930317700
  H        20.7953610700       19.4261633000       19.5943573100
  H        22.0100949000       19.3809756300       18.7797918300
  H        20.3179944900       18.8977077000       21.9124840400
  H        19.7526026700       18.1432997200       23.0912027900
  H        20.5275212200       21.9464090500       21.6209012300
  H        20.0932853800       20.8324589400       22.6843022300
  H        18.4816498700       21.2438629100       21.2473296000
  O        17.6387181100       21.0310933800       20.7313581700
  O        19.1476487600       18.9436355000       19.6857400100
  O        16.9643423000       17.0437281300       20.2009525900
  O        21.8688761400       22.2204111600       20.4955871600
  O        14.8426344200       19.5031124800       22.4064269900
  O        21.7408104900       19.5423009600       19.6877849900
  O        20.2999661900       18.9447234500       22.9227411500
  O        19.7340110800       21.6093992300       22.1162429400
      24
 i =        1, time =        0.000, E =      -137.7503359930
  H        18.1037046200       22.2311910400       19.9581228200
  H        18.2742464700       19.8130979400       19.6730329700
  H        17.5910903900       18.5187430200       19.9027513900
  H        16.8139718800       17.4278684400       22.1488376900
  H        16.7905052200       19.0852084800       22.1713612000
  H        22.6550650100       21.1031538500       19.9374029200
  H        21.3782234300       20.3994541700       19.6763696300
  H        16.8534110500       21.1199745900       21.5714518000
  H        16.4872646300       21.0047383200       23.0500273900
  H        20.9323623900       17.8828950300       19.4715459500
  H        19.6873035100       18.6056494200       18.8564578700
  H        20.0600020100       18.0348277000       23.6607519600
  H        19.0261382800       18.0150343500       22.5388759400
  H        20.8517438100       21.2713805500       21.6357872000
  H        20.3086728500       20.2301789000       22.5576624500
  H        18.8785862200       21.7069739700       21.3646977000
  O        18.1565941900       21.5318313600       20.6502508600
  O        18.0710594800       19.0119513000       19.1416224100
  O        17.3066665300       18.2573251600       21.9526907500
  O        21.7146754700       21.3106154300       20.0019533700
  O        16.1804875600       20.6392247500       22.1752037300
  O        20.7164071500       18.6970578700       19.0132787700
  O        19.9490838600       18.3209300300       22.7542902100
  O        20.1287863600       21.1763439300       22.3309103400
      24
 i =        1, time =        0.000, E =      -137.7338426305
  H        16.9960808300       22.4374979900       21.5314899000
  H        18.1309368900       20.4632037000       20.2592620400
  H        17.7433153300       18.9843521100       19.9517328000
  H        17.1311642800       17.1602446400       20.7453702900
  H        16.7070790500       18.3653320200       21.5090699300
  H        22.4626801600       22.0873333700       20.1824437200
  H        21.3031351200       21.1521338800       19.7004266700
  H        17.1820805700       20.0979112800       22.3559573400
  H        16.5463129500       19.3471312800       23.5991767500
  H        20.5998540000       19.6959963700       17.8905441500
  H        19.6840680900       19.9671298900       19.0897173600
  H        19.7143458000       17.8160536500       21.0697383900
  H        21.1864478800       17.9749488900       21.2789890900
  H        20.6961872400       21.3058272300       21.9688394600
  H        19.8176352600       20.3279124700       22.7232278100
  H        18.2920929500       21.6511945700       21.8770873100
  O        17.4390095100       21.5914012000       21.4021826300
  O        18.4977976300       19.6558045800       19.8412512500
  O        16.5211745400       17.8773270200       20.6027903000
  O        21.6736788000       21.5420728500       20.5144436300
  O        17.2146218700       19.2316142300       22.8884707200
  O        20.5994266200       20.1387061800       18.6994476500
  O        20.4205936400       17.4821884000       21.6604428200
  O        19.8888891100       21.2759744500       22.5650310700
      24
 i =        1, time =        0.000, E =      -137.7322229503
  H        17.0981731900       22.3012673400       20.2809586500
  H        18.2252845400       19.9160346800       19.7669645200
  H        17.9606086600       18.5772877100       20.2558820900
  H        17.3591592900       17.1767276800       22.1748561400
  H        16.2753242000       18.0318684000       21.6891623000
  H        22.7935738400       19.6922411700       19.8864796300
  H        22.1536316200       20.6691140000       20.8044754800
  H        14.6867554600       20.0318563500       22.1330545400
  H        16.0565660800       20.5126405400       21.5811080200
  H        21.5317312400       17.5231315100       18.9336191400
  H        20.2735050600       18.4163928300       19.0770502600
  H        19.9378248400       19.5609826900       21.1335617300
  H        20.5518466500       19.1450804300       22.4823993600
  H        19.5341691500       23.1905082700       22.9121114200
  H        19.8082568700       21.5746642800       22.4725746800
  H        18.0750227400       21.7754933200       21.4572330000
  O        17.5004213100       21.5216174900       20.7168228700
  O        18.6102631600       19.0583915000       19.6599269200
  O        16.9005570100       17.3436156700       21.3149828900
  O        23.0085615800       20.5451288900       20.3053001900
  O        15.6426294100       19.8532945500       22.1707074600
  O        21.1675433600       18.2636980300       19.4619894400
  O        20.3778334700       19.9069586200       21.9323611800
  O        19.1653247200       22.3489385600       22.5295336300
      24
 i =        1, time =        0.000, E =      -137.7424687367
  H        18.2183321000       22.2147075200       22.3074451600
  H        18.0594666700       20.2485405100       19.8155786200
  H        17.5340917000       18.8687558300       20.0822453000
  H        16.5400609000       16.9058553700       21.1407668200
  H        16.5204957700       18.2408799700       21.9720634900
  H        22.0931737600       22.3398438600       19.6753979800
  H        21.1768306900       21.0283163200       19.3599354500
  H        17.4563690000       20.2596058000       22.8188583100
  H        15.9115025300       20.0643267300       23.1124346100
  H        20.9676849600       18.8554528000       17.9861730500
  H        19.5983496700       19.4350533000       18.5492567900
  H        19.4773414200       18.6807071700       20.9064182900
  H        19.1778068100       17.8868836100       22.1293996400
  H        21.3546456100       21.0793658400       21.6566955500
  H        20.6473217000       20.0097276500       22.6201087900
  H        19.2482068500       21.1486053900       21.8885548300
  O        18.2308677900       21.3417772000       21.9448708000
  O        18.2850302700       19.3098649700       19.6338813200
  O        16.3516653500       17.8326850500       21.0240056400
  O        21.4308016400       21.6974560500       20.0264700600
  O        16.8301360300       19.6232078300       23.1839642200
  O        20.4940399800       19.7131821400       18.1483744700
  O        19.8872031100       18.4302175900       21.7444661700
  O        20.7587877600       20.9454615300       22.4498658800
      24
 i =        1, time =        0.000, E =      -137.7392559704
  H        18.1035585900       22.0942058100       19.9530971600
  H        18.1472016100       19.8695950400       20.1687085800
  H        17.7792053100       18.3849230100       19.9109387300
  H        15.1920007200       18.5564758800       20.3672405100
  H        15.8423192900       18.6060380400       21.7408166900
  H        21.6763495200       19.5961594200       21.3686144400
  H        21.5339630800       20.6164229400       20.1513651800
  H        17.1556466000       18.6819341300       23.5187196500
  H        17.1116524600       20.0508897300       22.8418171300
  H        20.9515082200       19.3431561200       18.1478776400
  H        19.8786894500       20.0243365700       19.0344754900
  H        21.0044534800       17.3569116300       21.6687749800
  H        19.9347485300       18.4507118000       21.2103449500
  H        20.8350373600       21.4430609500       21.7718059200
  H        20.2527868800       22.6447059800       22.6667167000
  H        18.7592193000       21.3969707900       21.2056245300
  O        17.9290584400       21.3584528700       20.5960007500
  O        18.5742343400       18.9900944200       19.9871850700
  O        15.8561311500       18.0983031500       20.9259284800
  O        21.9145625800       20.5002559800       21.0471341200
  O        16.5811878900       19.4558571300       23.3770885300
  O        20.7119716100       20.2147456300       18.4870791600
  O        20.6565408400       18.2288497100       21.8884128600
  O        20.0337147900       22.0567522300       21.8656176100
      24
 i =        1, time =        0.000, E =      -137.7488587679
  H        16.2004660500       21.8414303900       21.1569248900
  H        18.0607129000       20.1482121900       19.8135104500
  H        18.1896055200       18.6097582900       20.1665236800
  H        17.3690835700       16.4138062500       21.4290413800
  H        17.1838538900       17.8751711400       21.9920700500
  H        22.5362270700       22.1774436800       20.5504390600
  H        21.7696718200       20.9078013800       20.0142382700
  H        16.3934113900       19.9805243800       21.8929389600
  H        16.2008334000       19.5379924800       23.4190893900
  H        21.6239117600       18.7691149800       18.1752675800
  H        20.3146417200       19.4033958400       18.9349936300
  H        20.0790396400       19.2892784600       21.4438073200
  H        19.8419783600       18.3241969700       22.5705122900
  H        20.1286080000       21.7219845800       21.3803343500
  H        19.5223665400       20.8931562000       22.5584801200
  H        17.7733116100       21.4497502700       21.3266917400
  O        16.8551706800       21.1614657700       20.9068942300
  O        18.6195118300       19.3335313700       19.6311711600
  O        17.7874294200       17.3062228600       21.4300592300
  O        21.6473138200       21.8089241000       20.3962802200
  O        16.3428339100       19.1685797600       22.5378205200
  O        21.3552103100       19.4432912300       18.9057507000
  O        20.4083785900       19.0889069000       22.3786277100
  O        19.3027058000       21.5781175300       21.9186692100
      24
 i =        1, time =        0.000, E =      -137.7278732113
  H        17.0785499600       22.6077632200       19.9587704400
  H        17.4585181600       20.0275306100       19.8065659900
  H        17.0836279500       18.4663950200       19.7348518900
  H        15.9252545200       16.7249227300       21.9927958900
  H        16.7915776500       17.9922204400       21.8033806100
  H        23.0475011400       21.3397229600       19.7827305600
  H        21.8817454700       20.4470319300       19.5882790000
  H        17.3387192100       19.6825636100       23.0903020800
  H        18.6373886100       18.9364650200       23.0293213900