      27
 i =        1, time =        0.000, E =      -154.9483587485
  H        18.1876407700       19.0210740300       16.7516422400
  H        20.6719450400       21.5988889500       19.3302438800
  H        20.0273917900       20.1670942700       19.2590020500
  H        24.2607926800       18.1504955200       17.3556171600
  H        22.8916153100       18.0638989100       18.0716026000
  H        19.0220656800       19.2448901200       22.1493654900
  H        17.4338722600       19.3854596400       22.6342033800
  H        20.1918302200       18.2139982600       18.2588542100
  H        20.4074935400       17.7998989500       19.6327316700
  H        22.9730782600       20.0076836300       21.5797179400
  H        22.4359418900       20.2700678200       22.9876750800
  H        20.8038529200       17.4738283400       22.5134176700
  H        21.3899945300       18.8337968500       22.1107686300
  H        18.0409389500       20.9188915200       19.3335616900
  H        17.4601366300       20.1752213700       20.4702183100
  H        22.2998549400       19.6334247000       19.6898162400
  H        23.7534750300       20.1919585600       19.7277209000
  H        17.9377394700       18.9858929800       18.3554779500
  O        18.5232878900       18.6628045100       17.5795972000
  O        19.8389407300       21.0991883900       19.2162333500
  O        23.8348220500       18.2929357800       18.2144940900
  O        18.2130444800       19.8675087300       22.2909773500
  O        20.7623614000       18.3875178600       18.9884926700
  O        22.7181225600       19.4895174100       22.4621412600
  O        20.6198171900       18.1926058400       21.9172137300
  O        17.4007085900       20.1837463300       19.4710126200
  O        22.8459053000       20.4533576900       19.9643753300
      27
 i =        1, time =        0.000, E =      -154.9562262685
  H        17.2660863100       17.1358653900       17.9069759700
  H        20.1445262600       19.9148585900       17.3039689600
  H        20.5524381000       19.2906211200       18.6500724100
  H        21.9219189700       17.5914267500       19.3803510900
  H        23.4014931000       16.9866858600       19.5909631900
  H        19.6590717500       21.2875877500       21.3770110400
  H        19.7610900000       19.7961122200       21.7953080100
  H        19.1946919400       17.5509647500       19.3757668600
  H        20.2850997900       18.0770059100       20.4002896900
  H        22.7388538300       21.1150961900       20.9168695400
  H        23.4840204600       21.0062114900       22.2323949500
  H        22.1190127900       18.2190080900       21.4286476700
  H        21.8234972600       19.5765344600       22.1059789800
  H        18.0004151700       20.8489771500       18.5802184600
  H        17.7905186600       20.5137929500       20.1224210700
  H        22.3247871500       20.6660791000       18.6071484300
  H        22.9762492700       21.9929518900       18.6609959300
  H        17.0414504000       18.2338885300       18.9371823300
  O        17.3329209900       17.2756257400       18.8968364500
  O        20.5757482700       20.1361447800       18.1291888000
  O        22.8471519400       17.7702579500       19.6046975100
  O        19.1456674700       20.6036091100       21.9116930500
  O        20.1981833300       17.7028442100       19.5076765500
  O        22.5586793200       21.0302343200       21.8937038700
  O        21.4779728600       18.6353589900       22.0586615300
  O        17.5275419700       20.2357032100       19.1862936900
  O        23.0745224700       21.1343638000       19.0946589200
      27
 i =        1, time =        0.000, E =      -154.9671596625
  H        17.8534429300       17.9288863600       18.1839293200
  H        21.1160112000       20.1513082300       17.2992271500
  H        20.8871948600       19.5446662000       18.8456814500
  H        22.6118267500       17.2238636000       17.6797158500
  H        21.8298437100       17.7873375900       18.9110990000
  H        17.7647860500       19.0884431100       21.0081204000
  H        18.8820507000       19.3327771400       22.1115896500
  H        19.4156783700       18.1411840600       19.5381456600
  H        20.5012304200       18.3213588100       20.7256180000
  H        22.8203358700       20.4816068100       21.2975147000
  H        23.3227398100       19.6509491900       22.5085476300
  H        21.0338496100       17.9430782000       22.6381824800
  H        21.2962867100       19.5286603400       22.3549671700
  H        18.9461676200       21.0226860900       18.5245446900
  H        18.2933269900       20.7677158200       19.9206704900
  H        22.4215473900       20.7352246500       19.1857032600
  H        23.7020864100       19.8158825200       19.0594172400
  H        17.8607557700       19.2800028500       18.8434906200
  O        17.8785398900       18.2859702200       19.0501687800
  O        20.8790434400       20.3565322400       18.2098587300
  O        22.7661305200       17.8382230000       18.4336776300
  O        18.1141485100       19.7918372400       21.5847451800
  O        20.4451813800       18.1202902300       19.7463112400
  O        22.6308791600       20.3231468000       22.2850546200
  O        20.6608298600       18.7391330900       22.2215748500
  O        18.0889275300       20.8085642900       18.9563757900
  O        23.2700498400       20.4531133400       19.7160317700
      27
 i =        1, time =        0.000, E =      -154.9351555722
  H        17.6909003600       17.1323157300       19.9005785200
  H        21.5407416700       21.1711907800       18.2021016700
  H        20.1220710500       21.5767792700       18.8727915200
  H        23.2927979900       17.4598624700       19.2970633900
  H        22.3140287500       18.0347196300       18.2267228800
  H        18.7264787100       21.1141350700       21.8575814000
  H        18.9002699700       19.5406151900       22.0221973600
  H        19.8708111300       17.7079398100       19.7194423800
  H        20.8630753700       18.3284839600       20.8182596100
  H        23.0678974900       20.1523044800       20.7609796000
  H        23.8582901700       20.4795044600       21.9749956300
  H        20.6356937800       18.4313324300       23.3085506600
  H        21.2537702200       19.5638846900       22.3882437800
  H        17.0298456300       20.5015743400       18.4892563900
  H        17.7281282000       20.2643711100       19.9624620100
  H        23.3941657100       19.5018817100       18.5426571500
  H        23.7476702400       21.0641319500       18.5364491900
  H        17.7887644300       18.5075310600       19.2331225900
  O        18.2352302000       17.6795654200       19.3866044400
  O        20.5532509600       21.2376439500       18.0015004400
  O        23.2543552000       17.8037810900       18.3533224400
  O        18.2686389500       20.2126088500       21.6771556600
  O        20.8584346900       17.8775750400       19.9698189700
  O        22.9686282100       20.1633974400       21.7776836300
  O        20.4072160500       19.0851358500       22.5905460000
  O        17.0013188600       19.9884123900       19.3098031300
  O        23.1068789400       20.4300991700       18.9182808300
      27
 i =        1, time =        0.000, E =      -154.9480149038
  H        18.5209521400       16.7399657600       20.2147140000
  H        19.7773910100       21.6155478800       18.4910529600
  H        19.5250278100       20.1588287800       18.0417768500
  H        23.1724444900       17.0667346000       18.3352069000
  H        22.3322076600       17.9436598200       19.0690938700
  H        18.9271694400       20.5627888700       21.6875211800
  H        20.3252126100       20.6889801400       22.3374403000
  H        19.6515356500       17.9538939500       19.0232096700
  H        20.6563132200       18.6846524900       19.9854478200
  H        22.3625346300       20.2157319400       20.5172023000
  H        22.7526383200       21.0015013800       21.7271516400
  H        20.1766953200       18.8939146700       22.0077133700
  H        21.3113222500       17.7915902200       22.1179476700
  H        18.1780250900       21.1857370300       19.4196831400
  H        16.9381283800       21.4754239000       20.3496579200
  H        23.0512378100       21.1003342500       18.3677082000
  H        23.3558944000       19.5963262800       18.6010522400
  H        17.6051251000       17.1385595200       19.0475518100
  O        18.5143108300       16.8734244000       19.2367448500
  O        19.1990430800       21.1043104700       17.9256890400
  O        23.3228839100       17.8389624400       18.9248363500
  O        19.4632865700       20.1859758800       22.4404137600
  O        20.3511563700       18.6371370200       19.0420064400
  O        22.1730479400       20.2111966800       21.4995898900
  O        20.4622028000       17.9604565000       21.7024931800
  O        17.8711387900       21.2068412300       20.3908076700
  O        23.4988437600       20.5051757300       18.9968016800
      27
 i =        1, time =        0.000, E =      -154.9298049702
  H        17.4292331500       17.1652206000       19.0061331700
  H        20.6819081600       20.1988316900       17.3177673600
  H        21.2070898600       19.6280119800       18.4192790100
  H        23.9251077700       18.2901549500       17.9313914700
  H        22.4573133600       17.7877086800       18.5695322800
  H        18.6584709700       20.6919909700       22.8508418200
  H        19.4608530000       21.1513816100       21.5985922800
  H        20.1705986300       17.2343056500       18.4451732600
  H        20.5795878100       17.8319384200       19.8468370700
  H        22.1696461200       20.6910866900       21.0528319100
  H        21.5706808700       21.5006612700       22.4153238100
  H        20.4330339800       17.4544283900       22.3730301900
  H        20.9502195300       18.9412068000       21.8172883300
  H        17.4501829100       20.5550586800       19.0455970000
  H        17.7576034300       20.3482333500       20.5243605100
  H        22.7102999100       20.8199227900       18.8569126300
  H        23.4530199200       19.7091195500       19.5738252100
  H        17.9872595700       18.5015868100       19.2692993600
  O        18.3735400400       17.5701503200       19.0799681600
  O        21.0494910700       20.5184445200       18.1266403500
  O        23.4052086400       18.0224795100       18.7060281400
  O        18.6171172200       21.3309910600       22.1021943900
  O        20.9174053400       17.7799703600       18.9207277000
  O        21.6845168900       20.6056414300       22.0477240700
  O        20.3814792100       18.1948585700       21.6576429100
  O        17.2971301900       19.9430385200       19.8017421000
  O        23.1027917700       20.6406505800       19.7436249900
      27
 i =        1, time =        0.000, E =      -154.9430910772
  H        16.8677636500       17.1957669100       19.6230593600
  H        20.2287576400       20.2413443500       16.7973258500
  H        20.4971492700       19.1425722400       17.7651739700
  H        22.4521201300       17.6142882300       19.8519554000
  H        23.7704357200       18.0871303800       19.2237512800
  H        19.4015976900       20.3590741900       21.6163795700
  H        20.1478102800       21.1719942300       20.6298933300
  H        20.1828856600       17.0228871700       19.3655677600
  H        20.4283855600       18.2330578700       20.4057825800
  H        22.6842604200       20.4756413800       20.8865391300
  H        23.1464027900       19.0762156600       21.4401678100
  H        20.6500419000       18.0125428600       22.6808918300
  H        21.3711957800       19.1754676400       21.9555554300
  H        17.6236622700       21.2687940800       18.6127670600
  H        18.0436300400       20.8289507800       20.0363195300
  H        22.0219157500       20.5271440800       18.5296733400
  H        22.8619997800       21.8276771200       18.4630915000
  H        17.3439331700       18.7552799900       19.6200865600
  O        17.5084207000       17.8047908900       20.0227622900
  O        20.2116459500       20.0452532400       17.7442428100
  O        23.4011365000       17.5846107900       19.9591280900
  O        19.3696320000       21.2654634100       21.1573169800
  O        20.7164283300       17.8049319500       19.5043696300
  O        22.7647334400       19.9366598400       21.6954489100
  O        20.5266147500       18.6286838000       21.9176078600
  O        17.5051765900       20.5092173200       19.2922688600
  O        22.7825636300       20.9941678400       18.9819851400
      27
 i =        1, time =        0.000, E =      -154.9512495047
  H        16.9624441200       17.5338804300       18.8799298900
  H        20.4933014800       19.9775004000       17.1123663800
  H        20.3556240100       19.3372734500       18.4907863000
  H        23.5425617300       16.8835079900       18.7329992900
  H        22.4557882900       17.8629772400       19.1099728700
  H        19.2269666700       19.5220257300       22.2699774800
  H        18.5742459200       20.8766232600       22.7350339600
  H        19.1096658300       17.7603170900       19.1698173400
  H        20.3712866800       17.8405358200       20.0716662300
  H        22.8192925500       20.6297977300       20.7401047300
  H        21.4993164400       21.0825225200       21.6067579400
  H        21.4452399500       17.6841758000       22.1698007100
  H        21.2996069300       19.0386553000       21.4264720300
  H        18.1329141300       21.5046018800       19.5930000500
  H        18.2582075400       20.5198002000       20.7664804000
  H        22.3100564800       20.8227872900       18.8837150000
  H        23.4310033800       19.7885279100       18.8427602000
  H        17.4387310100       18.9261634600       19.6772022300
  O        17.5118786500       17.9386460200       19.5439435600
  O        20.6404807000       20.1744983400       18.0511248000
  O        23.4319946000       17.8120898800       18.8628255200
  O        19.1669742200       20.4816379900       22.0520996500
  O        20.1519821600       17.8670485500       19.0828089600
  O        22.3342033800       20.5597923900       21.6586034700
  O        20.7453558300       18.2795735600       21.7134108700
  O        17.6243077100       20.8268472600       20.0253109400
  O        23.3050372400       20.7233725000       19.1101756000
      27
 i =        1, time =        0.000, E =      -154.9534302330
  H        16.8628770000       17.6194158900       19.3230393200
  H        20.7367064200       20.1669925000       17.5139405300
  H        20.3974336500       19.5837618400       18.9109661500
  H        23.3084704400       17.8167252400       19.5239888900
  H        22.0832996000       17.7130236100       18.6262638400
  H        18.8985057300       21.5999876300       21.9446863600
  H        19.0217074800       20.0856984200       21.9151870400
  H        19.4762512800       17.6921133200       18.9657315000
  H        20.2791733500       17.9898611900       20.2952264600
  H        23.0987957500       20.2807617900       21.2512929900
  H        23.0891876400       20.6137334500       22.7474086200
  H        20.4675854100       17.7399348400       22.3290105400
  H        21.2857221800       18.9276610100       21.9266522900
  H        18.7757492500       20.8315476600       19.0224662600
  H        17.9558328800       20.6836983700       20.3444142500
  H        23.5378607700       21.3763550800       18.9559518400
  H        23.5400682500       19.9438062600       19.0577609300
  H        17.8675008200       18.8378350600       19.0645261500
  O        17.7156571600       17.8547475800       18.7919847900
  O        20.4129155600       20.4449614200       18.3759244800
  O        23.0885480600       17.8701870100       18.5258547700
  O        18.3936637300       20.7900193100       22.1275259000
  O        20.4281102600       17.8143184300       19.3266197400
  O        22.6563153300       20.0128531000       22.0808582800
  O        20.2867052200       18.5486905200       21.8666162000
  O        17.8615689000       20.4995620600       19.3452877500
  O        23.8824607400       20.7077514500       19.5689265100
      27
 i =        1, time =        0.000, E =      -154.9474131263
  H        16.8954611800       18.0749766200       17.6419609300
  H        21.5280112000       19.9081621500       17.7846444700
  H        21.0210046000       18.6510794500       18.4308243000
  H        22.1941080800       16.4313949100       19.4170946200
  H        20.9940917100       17.4299680400       19.6390648700
  H        19.7077934900       20.6586576500       21.8185048800
  H        20.0935008700       20.8507651100       20.3382108200
  H        18.8444110900       17.8098728500       18.9357806100
  H        19.2737238000       17.9239277800       20.4896100400
  H        23.5436679700       20.4983647600       21.5491309800
  H        23.4324947200       21.6813353700       22.4658661600
  H        20.9046788400       18.6080054100       22.9180094100
  H        21.9254487200       19.7816211400       22.5970049800
  H        18.0164196900       21.4869072000       18.5821470100
  H        18.2108999600       20.7694941700       19.9560544700
  H        22.5154475800       20.2323795000       19.6168069100
  H        23.2935098900       19.0118499200       19.8678661200
  H        17.8719547600       19.1396058800       18.2995294800
  O        17.8489033100       18.2531989800       17.8618231000
  O        20.7276590400       19.5793852100       18.2284232800
  O        21.9468083300       17.4120392800       19.4655820100
  O        19.3949214400       21.1169216600       21.0475496700
  O        19.3418227900       17.3665048000       19.6817251300
  O        23.3581226600       20.6943082500       22.5391699600
  O        21.0099163400       19.4764619000       22.4117496900
  O        17.6669994100       20.7292786400       19.1052861300
  O        23.4570075600       19.9499306800       19.7546302500
      27
 i =        1, time =        0.000, E =      -154.9549618150
  H        18.5996617400       18.0229890600       18.1138352600
  H        20.0744149300       20.8887815100       19.0551359400
  H        21.0455674100       21.9114956000       18.5230868200
  H        22.1175582900       18.4542913200       18.7754189300
  H        23.6525226700       18.2802743900       18.5339592700
  H        18.8577479600       19.5769780900       21.9290677400
  H        18.1657516700       20.7577012800       22.5908445600
  H        20.3110072500       18.2916759400       19.5995809600
  H        20.3604807000       18.9759833900       18.1538436800
  H        22.9348010100       19.6667140600       21.8473206100
  H        23.4976624100       18.5665596800       22.7997914100
  H        20.3881549900       17.4644820300       21.4376527500
  H        21.3428803800       18.5931201300       21.9164420300
  H        17.7842663000       19.7486156400       18.7614839800
  H        18.1511908300       20.5817147300       20.1877783700
  H        22.1170285300       21.1019957400       20.3330588400
  H        23.2948558100       20.1981263700       20.0681785000
  H        17.7344340900       17.6282575200       17.0959637100
  O        17.6208632100       17.8397751100       18.0350835900
  O        21.0205479600       20.9364548300       18.6834425900
  O        23.0286008900       18.8329524700       18.9702649500
  O        18.1066685200       20.1733996900       21.8183479000
  O        20.5074432400       18.1258387400       18.6089741100
  O        22.6588420800       18.9851414900       22.5578756000
  O        20.3598971000       18.4346574100       21.5295839600
  O        18.4207852600       20.3906646100       19.1989120500
  O        23.0182203800       20.8741785100       20.7328739900
      27
 i =        1, time =        0.000, E =      -154.9448217471
  H        16.5679965200       17.7260540900       19.0559845400
  H        19.3224556500       19.7910916900       17.9237386700
  H        19.6140193900       21.1248796900       18.4988785300
  H        23.7440075000       16.7040378900       19.8387849000
  H        24.9047654300       17.6869990200       19.5035780500
  H        19.6372625900       20.4123202600       22.1646746400
  H        18.8159996200       21.7716972600       22.2392998800
  H        19.5181215900       17.4807121800       19.3349377700
  H        20.2989223000       18.2099832200       20.4969416300
  H        22.9608465900       20.2331563100       20.5397894200
  H        24.0229061100       20.1971328600       21.6019403400
  H        20.8737547300       18.6405674800       23.0034793200
  H        21.6445883900       19.7525981300       22.2077319200
  H        18.3248245700       20.5911433200       20.5610616200
  H        17.0459106600       21.0466511300       19.8022268500
  H        21.7481305400       19.8854460200       18.5988660000
  H        23.0540033400       18.9925874600       18.8419278500
  H        17.3684437800       18.9521152000       18.6555425100
  O        17.3609585700       17.9506973900       18.5372598600
  O        20.0267970200       20.4807140900       17.8837825800
  O        23.9897452900       17.4651391300       19.2101212900
  O        18.6984715900       20.8102976400       22.1205934900
  O        20.4118122900       17.6954260100       19.6585710300
  O        23.1271333700       20.5013262600       21.5464791900
  O        20.7450521000       19.2318276400       22.2120708900
  O        17.8430263700       20.5424896600       19.6968517700
  O        22.5995465400       19.8843098700       19.0713589800
      27
 i =        1, time =        0.000, E =      -154.9627776064
  H        16.6834435200       18.5676952600       18.6548638300
  H        19.2833058300       21.2144547500       18.8619959600
  H        20.0998134700       19.8733981400       18.7438016900
  H        21.7224774300       17.3900179800       18.1005075900
  H        22.9325374000       16.3964666600       18.3543670000
  H        20.0974922600       19.7897403300       22.7812077800
  H        20.4962185400       20.8930283500       21.9443078600
  H        19.0418302700       18.0845198100       19.0359277800
  H        20.2729250100       17.7525021200       20.1164226600
  H        22.9465899700       20.1088259300       20.4990627900
  H        23.4609107400       19.8895027700       22.0008898400
  H        21.1436276300       17.2612145500       22.2876169400
  H        21.6135476600       18.6873795000       21.8102655500
  H        17.0848663000       21.7178799600       21.0213538900
  H        18.4613170500       20.9559422900       21.4189539600
  H        22.5077696000       20.2500038700       18.6470206100
  H        23.2046143400       18.8797596700       18.6288957500
  H        17.6408166400       19.6395540100       19.4393743900
  O        17.5316572000       19.0011215100       18.6957875800
  O        20.1844433900       20.8427312100       18.7459845400
  O        22.7117540900       17.1822967400       17.8308962800
  O        19.7614449500       20.6947765500       22.5666316400
  O        20.0788003800       17.9508130200       19.1502753500
  O        22.6465968200       19.9867971100       21.4405185100
  O        20.7764424000       18.1327949400       21.9801557900
  O        17.7617031100       21.0306734100       20.6663696000
  O        23.3983937800       19.8566095700       18.8933923900
      27
 i =        1, time =        0.000, E =      -154.9487569134
  H        17.4938067200       18.0002473300       21.0184201800
  H        20.9128295100       20.1329741600       16.6708239000
  H        20.5276720400       19.5989586600       18.0469257000
  H        23.4884643800       19.0798565600       19.1123640200
  H        24.2634059800       18.9008747000       20.3319432300
  H        19.0393680800       19.4833549300       22.0109172800
  H        18.4156187200       20.7189540700       22.7030511900
  H        19.6813606700       17.9840906100       19.3987282200
  H        20.9895265500       18.1623034100       19.9933648300
  H        22.4321016400       20.3592129200       20.7130220700
  H        23.2937546500       20.5342281100       22.0580433500
  H        20.6228534600       17.4965836200       22.3365590100
  H        21.1765832100       18.8826660500       22.0778730800
  H        18.2304990200       20.5297185900       18.6785849200
  H        17.7155094900       20.2935159100       20.1356800000
  H        21.8236035300       21.0172327100       18.4559056400
  H        22.7937295300       22.0664422100       19.1315896400
  H        17.5391528500       18.3042033300       19.5712532900
  O        17.8874810900       17.6405038300       20.1850786600
  O        20.6579318700       20.4998352700       17.5252490700
  O        24.2152635600       18.4566816300       19.4491666400
  O        18.2567210700       20.0854130000       21.9939730300
  O        20.6224113900       18.1179283700       19.0531564000
  O        22.5325404900       20.0779211000       21.6174328200
  O        20.4239037600       18.3192684000       21.8515242600
  O        17.4798141900       20.0921170200       19.1793573400
  O        22.6651804100       21.1247364300       19.1088856100
      27
 i =        1, time =        0.000, E =      -154.9631471068
  H        16.7140988300       18.3472690400       19.1112488400
  H        19.5961358300       20.3010258800       17.8372732000
  H        20.6161531900       19.1677627900       18.1565607800
  H        23.4644640000       16.8921689400       18.7125030000
  H        22.0550787000       17.3395977700       18.9846451200
  H        19.4454394700       19.8872911300       22.6749274700
  H        20.4671028500       20.9667987200       22.0311247300
  H        19.3337500100       17.8554889400       19.1211389700
  H        20.3399567600       17.9372872300       20.3571031300
  H        22.5529914800       20.5364061700       20.6414774900
  H        23.1174065600       20.9592803600       22.0496550200
  H        21.3190302600       17.3738171900       22.4010916200
  H        21.5588946300       18.8027631500       21.8458030500
  H        18.0478060600       21.8842682500       19.4543032600
  H        18.2779765500       21.0026732100       20.6528881300
  H        22.0738853100       20.5681766900       18.5090825400
  H        23.1273483400       19.5242879000       18.6168748700
  H        17.7246444600       19.2326955900       19.6956630500
  O        17.5712586800       18.2676932300       19.5511503800
  O        20.4942045700       19.9503876500       17.5130298500
  O        22.9244194700       17.6440712300       18.8754436100
  O        19.5487074600       20.8016752000       22.2293000500
  O        20.2802572600       17.9508875000       19.3634011300
  O        22.3837657100       20.4477997500       21.6653053700
  O        20.8482075300       18.1436038100       22.0785336400
  O        17.8242603500       21.0273289600       19.7804768400
  O        22.9044528600       20.3678499800       19.0074653800
      27
 i =        1, time =        0.000, E =      -154.9546895508
  H        17.6727344200       16.9480926000       17.7670177000
  H        20.5160167500       20.7752564900       17.3576938700
  H        20.4385752800       19.2584549700       18.0181612500
  H        22.9146789900       18.2834437900       20.4911387300
  H        23.6621184800       17.6210877400       19.3577745600
  H        17.3031515200       21.3638245100       22.0910706600
  H        18.9025143300       21.1883955700       21.9063898100
  H        19.8083082600       17.2431339400       19.2580089100
  H        20.9125833600       17.8832205300       20.1618363500
  H        22.5142609300       21.0306999500       20.9876297100
  H        23.4914654300       20.8371662700       22.2230838600
  H        21.3605610100       18.0440451400       22.8368426000
  H        21.9810467700       19.3993922500       22.1711312000
  H        18.2227736100       20.3205060900       18.5411234700
  H        17.9687482000       19.9470781200       20.0053618600
  H        21.6451123100       20.6993621900       19.1460728100
  H        23.1485998700       20.3163006000       19.2301081800
  H        17.8278731200       18.1066865300       18.8231140800
  O        17.7338940400       17.0832008300       18.7784131000
  O        20.4634766100       20.2449458700       18.1960147400
  O        23.6361262400       18.4590094400       19.8315264500
  O        18.0088625600       20.9564972800       21.5484548800
  O        20.6889069500       17.6494825300       19.2289067800
  O        22.5324121900       20.8783283900       22.0448344400
  O        21.5621324800       18.4554562100       21.9648192700
  O        17.6058388200       19.7535750000       19.0668209300
  O        22.5189677200       21.0775125000       19.4345452500
      27
 i =        1, time =        0.000, E =      -154.9346421678
  H        17.4183620400       17.2863887900       20.1400971900
  H        20.8579137500       20.5453432300       16.9188754700
  H        20.2732931600       19.8107979900       18.1875034700
  H        22.1451659600       16.7275060800       17.3641600200
  H        21.6654026000       17.4962141900       18.7271355700
  H        19.1750752200       20.4702951200       22.9460596700
  H        17.7874358700       20.2624016400       23.5630793500
  H        19.8221455300       18.0962254100       19.5014068200
  H        20.7864488900       18.9615592500       20.4657487500
  H        23.4303967600       19.4746112700       19.9164989500
  H        23.4314977000       18.1243455900       20.5564830200