       9
 i =        1, time =        0.000, E =       -51.6184269531
  H        19.3140652800       16.6818320500       17.8878672500
  H        20.9333128000       17.2782889800       21.0750036500
  H        20.9087788700       18.7691067700       20.7315992500
  H        21.9634698900       19.6904529900       18.5776031100
  H        20.7792822500       20.3629554600       17.7618441200
  H        20.2825090800       16.8852562000       18.9389970100
  O        20.2662593400       16.5916684700       18.0420182100
  O        20.6456646700       17.8752826200       20.4311318400
  O        21.3175178000       20.4412679300       18.5102199400
       9
 i =        1, time =        0.000, E =       -51.6360513531
  H        19.9307187500       16.7009444300       19.2006215500
  H        19.8754552100       19.2164496400       20.7460521700
  H        21.1872710600       19.2736119500       19.8980267900
  H        21.0597934500       18.5364738900       17.8572823400
  H        22.1230259100       19.6720902700       17.7470846100
  H        20.9023864600       15.9490878900       18.2465828400
  O        20.2197982400       16.6561851200       18.2753496500
  O        20.7144704700       18.7904895500       20.6482617100
  O        21.2386439100       19.4816573700       18.1402313000
       9
 i =        1, time =        0.000, E =       -51.6424284961
  H        20.7906475600       17.3146226100       19.5119350100
  H        20.4510728400       19.3822010800       20.9675754800
  H        20.3897206000       19.2007675700       19.4907253200
  H        20.5097033000       19.6005573100       17.2222803600
  H        21.0942894400       18.4219799600       17.9182922900
  H        21.7128632800       16.1250045000       18.9888998800
  O        21.0146166500       16.7490345600       18.7320498700
  O        20.1283777400       18.7520529700       20.3226415800
  O        21.0381310300       19.3833638500       17.9836939600
       9
 i =        1, time =        0.000, E =       -51.6197588447
  H        19.5425482500       17.7400394600       16.9814384000
  H        20.0142797300       16.5203228200       22.9594768300
  H        21.4223566600       17.1586543100       22.4370115000
  H        22.0259398900       20.1963959900       17.3085621900
  H        20.5555250300       19.8600365400       17.4751471600
  H        20.2196685300       17.4661097300       18.3289736200
  O        20.3972699100       17.7862091900       17.4463397900
  O        20.6720526500       16.5321578500       22.2088995000
  O        21.1853901200       20.6356138600       17.2955138600
       9
 i =        1, time =        0.000, E =       -51.6293074919
  H        21.7276079300       15.7887153400       18.9160795200
  H        19.7494902000       17.5444087600       20.4316597700
  H        20.0712626900       18.8161147200       19.8275128100
  H        20.0856757500       20.6427005800       18.4091535500
  H        21.5940972500       20.1722668300       18.2911426600
  H        20.9570587000       17.1069029000       18.7513909800
  O        21.8335371100       16.6552574400       18.4624575700
  O        19.5507118700       17.9704614900       19.6071153800
  O        20.8449550300       20.2570958600       18.9355948300
       9
 i =        1, time =        0.000, E =       -51.6406027268
  H        20.4445635100       17.0967220700       19.2786546100
  H        19.1617731500       18.7392187800       20.1048308700
  H        20.5455531800       19.1309677600       19.6798259600
  H        21.1767117800       18.7888235200       17.9530765700
  H        22.0850805900       19.9650565000       18.4539915800
  H        21.6865157900       16.3541473100       18.9701878500
  O        20.8724681300       16.6467482000       18.5131667300
  O        20.1012999100       18.4966464400       20.3075062700
  O        21.1977870200       19.7391790400       18.1962369500
       9
 i =        1, time =        0.000, E =       -51.6240775602
  H        21.0089602300       17.0419045700       19.1329656800
  H        20.9071303300       18.6910234100       20.7281550300
  H        21.7892779500       17.5296614100       21.2384482800
  H        19.7338938200       19.8383939900       17.6841089300
  H        20.9730637300       18.9627776700       17.7886080900
  H        20.8037045600       16.4974877600       17.7695143100
  O        20.5256195300       17.2198838200       18.2895494700
  O        20.9081023000       17.8586088200       21.1785852100
  O        20.7305353100       19.8994492800       17.5549979800
       9
 i =        1, time =        0.000, E =       -51.6199687597
  H        20.3496047200       17.2015820300       18.4065709100
  H        19.8759919400       18.2116668900       21.5802144100
  H        20.2489362400       18.9642179000       20.2501856300
  H        22.7781267000       19.5551351300       18.5990188200
  H        22.0713433200       20.8568874600       18.5190551000
  H        20.5291728900       17.3708028000       16.8896407800
  O        20.2181582000       16.7551919700       17.5912798800
  O        19.9870919700       18.0668326700       20.6658885700
  O        21.9188643100       19.9291633900       18.7720828100
       9
 i =        1, time =        0.000, E =       -51.6283298937
  H        19.5574658800       16.9664188600       17.9293641100
  H        20.0264857500       18.7303261400       20.9787129100
  H        21.1733100000       19.1035399400       19.8000794800
  H        21.0419210100       18.8727057100       17.5238225600
  H        20.7061270700       20.4416936800       17.4890924600
  H        20.2055485700       17.1083652100       19.3326646600
  O        20.1916491700       16.5234616400       18.5491062400
  O        20.8943551500       18.5084192100       20.5607435300
  O        21.2360885600       19.7783571400       17.9944360000
       9
 i =        1, time =        0.000, E =       -51.6291217292
  H        21.6579713200       16.8726832900       18.5440299900
  H        20.5182033300       19.1201170100       20.2353103100
  H        21.7728874500       19.0177358300       21.1628321400
  H        19.1608921000       19.7358811000       18.3102891200
  H        20.3015908100       18.9316937200       17.6842052200
  H        21.7342878200       16.5776927400       17.1193402600
  O        21.0814131200       16.6082418800       17.8409486400
  O        20.9281173600       18.5666345500       21.0078726600
  O        20.1591494000       19.6963018800       18.2553213900
       9
 i =        1, time =        0.000, E =       -51.6206235226
  H        19.5862626800       17.5699633800       17.3733228800
  H        21.5904511700       18.4432101500       19.7060325200
  H        20.7993091100       18.6562633500       21.0515622100
  H        22.2750220100       18.9814694000       17.7442397400
  H        21.9779111500       20.3073086700       18.1614794800
  H        19.7294570300       17.0967246000       18.8914042900
  O        19.0575446700       17.3696431900       18.2036052900
  O        21.4982327100       18.0501062600       20.6263700200
  O        21.5617067400       19.4010801500       18.2822297400
       9
 i =        1, time =        0.000, E =       -51.6394814788
  H        19.4183521000       17.0427903300       17.1686550400
  H        19.3800780300       19.3338470200       20.4666964100
  H        20.7418532700       18.8323916700       20.1415985800
  H        23.0799758300       19.0250501600       19.0771962000
  H        21.8257133300       18.8045260600       18.2590120600
  H        19.7783207900       17.2897526900       18.6967166000
  O        20.1141711800       16.9277470400       17.8504840800
  O        19.8737907000       18.4844768400       20.3558063100
  O        22.2387786300       19.4543832300       18.8503556700
       9
 i =        1, time =        0.000, E =       -51.6253032565
  H        21.2383236200       16.6581224800       18.6844875400
  H        19.5454467300       18.5978555700       20.0136022400
  H        20.1165928200       17.4388960600       20.6900148800
  H        21.7147566500       19.6681856800       19.0204445100
  H        21.1959103800       20.1267113500       17.6591470300
  H        20.9285663600       17.5300041500       17.5791673400
  O        20.4394442500       16.9354300700       18.1387382400
  O        19.8834111700       18.3551835000       20.8613737100
  O        21.8714189500       19.5954354500       18.0668044600
       9
 i =        1, time =        0.000, E =       -51.6348504909
  H        20.0742854000       17.2246153800       18.9045520400
  H        19.4627707400       18.8416629300       21.0790415800
  H        20.8734635100       18.8726375600       20.2346906000
  H        21.4595958400       20.4840536100       18.0610207400
  H        21.1584572900       19.0409190400       17.7130367700
  H        19.9335324100       16.1356604700       17.8637456600
  O        20.4390862100       16.9227121300       18.0514844200
  O        20.1775729900       18.3096534300       20.6728959100
  O        21.6896041200       19.6171554300       18.3293541600
       9
 i =        1, time =        0.000, E =       -51.6247012252
  H        20.3958259300       16.9081586700       19.0531477700
  H        20.5987362200       18.4716416900       21.2563603300
  H        20.9993447100       18.9650803000       19.8743048000
  H        21.8763861500       20.7823871600       18.7862510500
  H        21.4665994400       20.3405712000       17.4944730100
  H        19.8293867400       17.1446126400       17.5445203600
  O        20.1257739800       16.4252584200       18.2114461700
  O        20.8437134000       18.1397415600       20.3992694500
  O        21.1979043000       20.1577002200       18.4333811600
       9
 i =        1, time =        0.000, E =       -51.6291999674
  H        20.2870427400       15.5674778600       18.7647777800
  H        20.6562067100       19.2024263200       19.8373665500
  H        20.1639198000       18.4561347300       21.1139274100
  H        19.6785105500       19.8301077000       17.5810582900
  H        20.8833677200       20.7858996300       17.3403615600
  H        21.0667605300       16.8614089600       19.3924737200
  O        21.0304606400       16.2465792200       18.6352502500
  O        20.8155342300       18.3738665900       20.3816091200
  O        20.4745260700       20.2225286700       18.0259201200
       9
 i =        1, time =        0.000, E =       -51.6273548022
  H        20.1357254800       16.1258270800       18.5856393800
  H        20.2951804100       20.2687634200       21.0153115700
  H        20.5702357300       19.0145381600       20.0131111300
  H        20.4923957600       19.1458530000       18.0210600400
  H        21.5857439000       18.1641129100       18.2135388000
  H        20.9964659900       15.7659484400       17.3296552900
  O        20.9607126000       16.3304502600       18.1493793600
  O        19.8922716000       19.5418414400       20.5384836100
  O        21.3831152900       19.1104515000       18.4085737800
       9
 i =        1, time =        0.000, E =       -51.6387191763
  H        20.1745899500       17.8473204900       19.8447469200
  H        20.6819007100       20.5755589600       19.7010193500
  H        20.4711462000       19.3676197900       18.7026263700
  H        22.1125232600       17.8990479900       16.9044516300
  H        21.2968125200       17.3960949200       18.2102850500
  H        19.5883944100       16.4313057800       19.5911931200
  O        20.4122916800       16.9104807900       19.8105554300
  O        20.1103599300       19.8197269500       19.5152273300
  O        21.6977208400       18.1875213800       17.7847664700
       9
 i =        1, time =        0.000, E =       -51.6282388710
  H        19.7300283100       15.7246364600       18.2791590900
  H        20.5009307600       17.4788655000       20.1266784400
  H        20.5031087300       18.8716872500       20.8143807100
  H        21.4229786900       19.4278567500       18.6486489300
  H        20.9372283900       20.7248255600       17.8819550400
  H        19.5784701900       17.0682950100       17.7449650300
  O        19.5462350300       16.6154331700       18.5738228000
  O        21.0768841500       18.1631937600       20.4750254900
  O        21.7013749700       20.1530122900       18.0275865200
       9
 i =        1, time =        0.000, E =       -51.6254843040
  H        20.7660269500       17.8087045100       17.9351933800
  H        21.5683668400       18.2733928100       21.7508881700
  H        20.7960885900       18.8768694800       20.6249647100
  H        20.2329689400       20.6066493600       18.5010377900
  H        19.1276485900       19.6918835300       18.7924035000
  H        21.5027408500       16.4762412500       17.9184983800
  O        21.1867396000       17.1506065500       17.2993625600
  O        20.9596093100       18.0042775300       21.0527194700
  O        20.0949110200       19.6231783600       18.5966312900
       9
 i =        1, time =        0.000, E =       -51.6385584122
  H        20.8819505400       16.5343723300       17.5390602700
  H        19.8769751100       17.9781202500       21.0195063700
  H        19.9935078400       19.0751659000       19.8323491700
  H        21.8111682400       20.4363266300       18.0263871000
  H        21.5543196200       18.8657340200       18.4325152700
  H        20.6024618200       17.2657612300       18.9251234800
  O        21.2891687900       16.9324700100       18.3422686400
  O        19.5841218100       18.1401769700       20.0862304000
  O        21.3221942900       19.8048520800       18.6303479400
       9
 i =        1, time =        0.000, E =       -51.6329058080
  H        21.0540314500       16.5514865800       19.2814110100
  H        20.5407887500       18.7055964800       21.0338495600
  H        19.8969612000       18.9238540100       19.6702547100
  H        20.7976498200       20.3311396700       17.4349655100
  H        21.5889475300       19.1886957200       18.1073838000
  H        20.8127763000       16.8611387400       17.7931649200
  O        21.5649687700       16.7357455400       18.4191140100
  O        19.8614321000       18.3914197500       20.4632341200
  O        20.7709255100       19.7247270400       18.2050971100
       9
 i =        1, time =        0.000, E =       -51.6198865099
  H        19.9198751200       16.6469763900       16.5095481300
  H        19.4798379900       18.2697289700       20.1119420400
  H        20.1578351100       19.4192624900       20.9881213400
  H        21.4858449500       19.8471065800       18.2885947600
  H        22.1513304900       18.5353123500       18.3946767700
  H        20.1826919800       16.8113848500       18.0352013600
  O        20.6154534100       17.0317790700       17.1761114400
  O        19.6645693600       18.5555923800       21.0355087100
  O        22.0000743600       19.3295497300       18.9383845300
       9
 i =        1, time =        0.000, E =       -51.6290198243
  H        20.6253954200       16.4081746900       19.3196667500
  H        19.8553918600       19.8504438500       20.9619106700
  H        20.5830464400       18.9480752100       19.8637118100
  H        22.5500853600       19.4670063100       18.1389525200
  H        21.3805864100       18.5498636400       17.8068624000
  H        19.8244805800       16.1828708600       18.1642765400
  O        20.6742271500       16.5932674500       18.3483755500
  O        19.8971618400       18.8951120800       20.5975911200
  O        21.6178835400       19.4363123700       18.0826107600
       9
 i =        1, time =        0.000, E =       -51.6401205924
  H        20.7281293300       17.1622408200       18.8056702700
  H        20.5790500500       17.4783791000       21.3637555700
  H        20.4025397100       18.6750936600       20.3680886600
  H        21.2707750300       20.6487777400       18.0484925100
  H        21.4104275600       19.1059724200       18.0830548000
  H        19.8471142800       17.5801182700       17.6627250900
  O        20.7734730900       17.2129888600       17.7878001800
  O        20.1648523200       17.7241921000       20.5283330000
  O        21.2875492600       19.9091247600       18.7076303600
       9
 i =        1, time =        0.000, E =       -51.6370458342
  H        21.4336938800       17.4692440400       19.6085003700
  H        19.7705358000       18.9290421600       19.8280333900
  H        18.7765835400       18.3099194600       20.8482002800
  H        21.4900261800       20.3704949800       17.6791036000
  H        21.4251704800       18.8007225100       17.8626255500
  H        21.0077753800       16.4717307100       18.5895825200
  O        21.7281619700       17.1389217100       18.7229449200
  O        19.6194996300       18.1301839600       20.4315102100
  O        20.8992721900       19.5960652000       17.8639997800
       9
 i =        1, time =        0.000, E =       -51.6276395396
  H        19.5179955200       16.6583483600       17.4721809400
  H        21.1755779800       17.5848935800       20.2902123700
  H        21.1514779500       19.1126186100       20.0502390100
  H        20.0475107300       20.0893226900       18.3794453700
  H        20.5144537300       18.6621943400       18.1765244800
  H        21.0100186200       17.0544469200       17.4066292500
  O        20.2756425100       16.8946889400       18.0523761400
  O        21.1401642700       18.4634621800       20.7669652800
  O        20.8617942200       19.5819521800       18.3654951800
       9
 i =        1, time =        0.000, E =       -51.6342132923
  H        20.8429340300       17.2357118600       19.0425716700
  H        19.3154633500       17.7710983900       20.6743982800
  H        20.1853738900       18.9244747900       19.8384494400
  H        20.2373033600       19.9714869300       17.4775499600
  H        21.3034021000       19.1055306200       18.1483771800
  H        22.0537308300       16.4353676600       18.7447659900
  O        21.3570413900       16.8377569000       18.2388064400
  O        20.2176974500       18.2142237800       20.4772749000
  O        20.6700262000       19.8703652300       18.3332412900
       9
 i =        1, time =        0.000, E =       -51.6392556136
  H        19.7888931400       16.4123344300       18.3675784300
  H        21.5692273000       18.6335957500       20.0369108400
  H        21.5426709300       18.4108883200       21.5504224300
  H        22.2083965600       18.8339554100       17.0958106800
  H        20.8494486600       18.6824458400       17.8792974700
  H        19.6284605100       17.6150768500       19.3522979600
  O        19.5313312900       17.3674956800       18.4122754500
  O        20.9154304000       18.4349204600       20.7733333400
  O        21.6941168000       19.1738216700       17.8412714900
       9
 i =        1, time =        0.000, E =       -51.6169871435
  H        19.1660535000       17.3278999000       17.4174911400
  H        20.6480428700       18.1665717700       20.9572495900
  H        20.7011785600       19.0079998000       22.1651206600
  H        20.9456884600       18.5748031400       17.7899301500
  H        20.6099210000       19.9960044200       17.6270387300
  H        20.3547027500       16.4291977600       17.4068562200
  O        20.1011574700       17.3366158400       17.1667945700
  O        20.9369761200       18.1605304900       21.8548249900
  O        21.3019324800       19.4214945300       18.0631381200
       9
 i =        1, time =        0.000, E =       -51.6345644516
  H        22.7079126000       17.4951330700       17.2773282800
  H        19.0426531200       17.0950203500       19.8902896400
  H        19.7727259200       18.3549088500       20.0071106200
  H        21.5198987100       20.0699863300       19.4408112900
  H        21.0469897100       19.1323383800       18.3255216700
  H        21.5813401200       17.0632676100       18.3217928000
  O        21.7954028400       17.6235211500       17.5693138800
  O        19.6200891200       17.5164073300       20.5398456000
  O        20.7200675600       19.7970983300       18.9819510200
       9
 i =        1, time =        0.000, E =       -51.6270997283
  H        18.3805176100       18.0252530300       17.8390555900
  H        20.0109727500       18.3301053900       21.4517390000
  H        21.1918440000       18.7517127500       20.6602290600
  H        21.5859047900       19.1130375100       18.0898766200
  H        22.7470559600       18.3314809900       18.6861555900
  H        19.4439168700       16.8925638600       17.9484775500
  O        19.2666552800       17.7586703900       17.4702017400
  O        20.6772297400       17.9433058100       20.8104535400
  O        22.3372960100       19.2203392600       18.7214508800
       9
 i =        1, time =        0.000, E =       -51.6306212245
  H        20.5748800000       16.7862370700       18.7386565500
  H        21.0585160900       18.5415206900       21.3890903700
  H        21.2114355900       18.7193824900       19.7711197400
  H        19.6388771800       19.5400457300       18.9048918100
  H        20.7841441500       18.9413908900       18.1599307700
  H        20.1057847700       16.3464455400       17.3347709000
  O        20.5327261500       17.1351798600       17.7964134300
  O        21.1608162000       18.0625040800       20.5528335800
  O        20.5867928000       19.7604890300       18.6766162500
       9
 i =        1, time =        0.000, E =       -51.6391343951
  H        20.8368162800       17.1970192200       19.1109847200
  H        18.4344334800       18.6105993100       19.9318119200
  H        19.9037790400       19.0290743600       19.7216163700
  H        21.7479237300       18.7131989900       18.3009244700
  H        21.2060048900       19.8653385800       17.5053216200
  H        21.7293148300       16.0834526100       18.7866699900
  O        21.5403282800       16.9879508400       18.4695220000
  O        19.3757788900       18.3451032500       20.1723473300
  O        21.3336941000       19.5858258000       18.4432888900
       9
 i =        1, time =        0.000, E =       -51.6308629474
  H        19.6893324700       17.1084727700       18.2420456000
  H        20.3126084300       18.5437320000       21.3241810300
  H        20.2577901300       19.0295195000       19.8133174200
  H        21.8556856400       19.6947010400       18.0735082400
  H        21.6759655400       18.2424068300       18.2198574100
  H        20.3965594800       16.2970216000       17.1211928900
  O        20.5569372100       17.0401060800       17.7724083400
  O        19.6969081200       18.8762483500       20.5686655200
  O        21.9751854700       19.0392460000       18.7795698500
       9
 i =        1, time =        0.000, E =       -51.6378607345
  H        20.9042861900       16.9583237900       19.1915285800
  H        20.1070841300       18.6922705700       21.2293155600
  H        20.3754642000       18.6182616700       19.7524481500
  H        20.3343780900       20.0105743400       17.6223372300
  H        21.1614716200       18.8329232900       18.0524901400
  H        22.1790175600       16.7671349400       18.3575493900
  O        21.2263705500       16.9634664600       18.2552675800
  O        19.8974787800       18.1365752900       20.4555714600
  O        21.0501311400       19.7948458800       18.3208704200
       9
 i =        1, time =        0.000, E =       -51.6313842465
  H        21.5697887500       16.4870314400       17.5599442300
  H        18.2787652600       17.8223272400       19.4175045800
  H        19.5922988800       18.8211020800       19.4429591100
  H        21.4735686500       20.7127533300       20.1978443300
  H        21.8926794900       19.7156617400       19.0191847000
  H        21.1208928100       17.1606985100       18.7662117900
  O        21.9124023700       16.7785674400       18.3932100300
  O        19.1971232300       17.9393783400       19.1163234500
  O        21.1358829500       20.1240131600       19.5097024800
       9
 i =        1, time =        0.000, E =       -51.6239779265
  H        20.8424290200       16.7783227200       17.2020645000
  H        20.2688967400       17.8877643900       20.0021842300
  H        19.5418301700       17.0544689900       21.1430282300
  H        21.1294467300       19.0319249900       18.3176112700
  H        20.6516844200       20.3426791200       18.7493187500
  H        22.1899844000       17.3154055400       17.6843713400
  O        21.2622450100       17.2389393300       17.9835193300
  O        19.4191084700       17.8770449100       20.5703174900
  O        21.5201868300       19.8714513200       18.5476237100
       9
 i =        1, time =        0.000, E =       -51.6306531565
  H        20.7300642700       16.2815389200       18.6946519000
  H        20.5773491000       17.8570704900       20.9232232400
  H        20.6470994000       19.2124454400       20.1604594500
  H        20.6590060300       20.1930819000       17.9027436400
  H        21.0309951800       18.6924439700       17.8241881800
  H        21.2556596000       15.9637286200       17.3188419900
  O        20.7428913900       16.7049876200       17.8113298200
  O        20.2163837700       18.7650912900       20.9662404700
  O        21.2248822300       19.5306036400       18.3411829300
       9
 i =        1, time =        0.000, E =       -51.6297462336
  H        20.3296416100       17.5368945500       19.1217708200
  H        19.1409926900       17.3280713100       21.1558889600
  H        18.0556100400       17.2476521000       19.9597517500
  H        23.2646001000       19.8360844900       18.3693494100
  H        21.8360068700       19.2495386600       18.3282178600
  H        20.3990298500       17.2573941800       17.7140007500
  O        21.0309106900       17.2939790700       18.4283669500
  O        18.9446866200       17.5591238200       20.2231612400
  O        22.3266478800       20.1314931100       18.3522509600
       9
 i =        1, time =        0.000, E =       -51.6289056476
  H        20.7234713200       16.8738752100       19.2526205600
  H        20.8765026600       18.9302075200       20.7841623100
  H        21.3603727700       19.0414234000       19.3417962900
  H        20.4903581500       20.6607782700       17.6424937100
  H        20.7454796600       19.1487917000       17.1044391600
  H        19.2419097000       16.8257314000       18.7076318000
  O        19.9945017400       16.3005061600       18.9728337000
  O        21.6838685700       18.7715279900       20.2392650900
  O        20.5979038400       19.7219641000       17.9060851800
       9
 i =        1, time =        0.000, E =       -51.6233846754
  H        19.8988561100       16.5363168200       18.1055158500
  H        20.7446732800       17.8437335400       22.3835427000
  H        20.8860876700       18.3336694100       20.9672675600
  H        21.3491715700       20.0839182900       17.3006886100
  H        20.5194130100       19.0809171500       18.0571387200
  H        19.9959181400       16.5382318300       16.6195920300
  O        20.1325283400       17.1500611500       17.3584636500
  O        21.3587663100       17.7984173700       21.6181818200
  O        20.7877500500       20.0385650600       18.1036982400
       9
 i =        1, time =        0.000, E =       -51.6359712430
  H        20.0138433500       17.3793733100       19.4711437500
  H        19.3938015000       19.6340277600       20.0503305000
  H        20.9519101500       19.4476989000       19.6511699500
  H        22.8146145700       18.4244904900       18.2970242800
  H        21.3259358800       18.4495305200       18.0066825500
  H        19.0239842200       16.8748090400       18.4526573300
  O        19.9708069700       16.7344501400       18.7506768300
  O        20.1804359300       19.0291725700       20.1446164400
  O        22.1196131800       19.1104458200       18.1538469100
       9
 i =        1, time =        0.000, E =       -51.6276924581
  H        21.1615398800       16.1325175300       17.6853673100
  H        20.5915275000       17.7592908000       20.6866305000
  H        20.3791500300       19.3116144200       20.2619104500
  H        21.0083643200       18.6776443000       17.7760042500
  H        21.8120979800       19.8126937300       18.5082680000
  H        19.7624754700       16.1226972900       18.1752587400
  O        20.5114893700       16.7096385200       18.1122863900
  O        20.6475670100       18.6849603300       21.0315875700
  O        21.0367579000       19.6302678300       17.9579103600
       9
 i =        1, time =        0.000, E =       -51.6310233532
  H        19.6314149700       17.1529676100       19.4866545200
  H        21.3682869600       19.0577626700       20.7380219900
  H        22.0504208100       18.6794584200       19.4558161000
  H        20.0777808300       20.1409303700       17.5273455200
  H        20.0276783800       18.6482582600       17.8305552900
  H        20.6370015300       16.8751319400       18.5510050700
  O        19.6652354400       16.8514677000       18.5435843700
  O        22.1188582800       18.5358043800       20.4190738700
  O        20.4698462100       19.4650865900       18.1078786900
       9
 i =        1, time =        0.000, E =       -51.6362909442
  H        21.5327915000       17.0977443700       18.0218352400
  H        20.8988561400       17.7146266600       21.4208180400
  H        20.5912902000       18.1101505600       20.0099767700
  H        18.9842432200       19.8540915500       18.8922452900
  H        20.2841092400       19.3680515000       18.2726869400
  H        22.0174509500       18.1123908100       16.9891895400
  O        21.2386314300       17.8072473300       17.4210047700