      21
 i =        1, time =        0.000, E =      -120.5145038719
  H        18.1812378300       19.4893618700       16.6569547900
  H        22.2038446600       19.5740329300       16.8524873400
  H        21.0333532000       19.7777929700       17.9595550700
  H        20.4715216200       18.3742545900       19.6908810900
  H        19.7495751400       19.7570624600       19.8783938300
  H        16.2746438700       19.8082431400       17.7420465700
  H        14.8560980600       19.9880662600       18.1721671000
  H        17.9459469800       20.5752807500       20.5529200800
  H        18.4162961000       21.8968458500       19.9978743800
  H        19.1569606600       21.0088116900       15.2519804600
  H        19.9916820200       20.7481298400       16.4268185400
  H        17.7891758900       22.5882747100       17.7886227700
  H        16.5247592700       22.1614669300       18.6031726500
  H        18.6885901500       18.9320991100       17.9631991200
  O        17.8699400300       19.0327977200       17.4205391000
  O        21.4841336600       20.2036520700       17.1055772700
  O        20.1488742500       19.1431815300       19.1648564100
  O        15.7164318900       20.3013565800       18.3748724300
  O        18.7776304800       21.0264965800       20.4250871400
  O        19.0059788800       21.0064440700       16.2092780300
  O        17.2759413200       22.7470114900       18.5881203200
      21
 i =        1, time =        0.000, E =      -120.5139802951
  H        18.3640808500       19.0403251600       16.9841850300
  H        20.8355887800       21.0836124500       16.1671073800
  H        20.3409450000       20.7313995100       17.6142066900
  H        21.3138855200       20.6428126400       19.8229423600
  H        19.7670992200       21.1179305800       19.8919228500
  H        16.4072693200       19.7789953400       17.9039462700
  H        14.9541191500       19.7148689900       18.4916365900
  H        17.8957272000       21.7971319400       20.7269535400
  H        18.0303860100       22.2909697700       19.2006787900
  H        20.4240258700       18.6214948800       17.2496555000
  H        19.8489673400       18.8173444300       18.5535680200
  H        17.4809616300       21.4438260900       17.3713732800
  H        16.2423948400       22.1678678900       18.1135141200
  H        17.5068586900       19.3553574500       15.6643882000
  O        17.8564315500       19.7120009000       16.5008898800
  O        21.0139065000       20.4721221500       16.9259164900
  O        20.3839327900       20.4683108700       19.5265817000
  O        15.8835275000       19.8770893200       18.7369219000
  O        18.4286534100       22.3185087100       20.0723602900
  O        19.6850937400       18.1935469500       17.7803275200
  O        17.1452890900       22.2981280600       17.7315347500
      21
 i =        1, time =        0.000, E =      -120.4919036453
  H        19.0513542400       18.5176784700       16.0926350200
  H        22.1323595500       20.9407610500       19.7408330200
  H        21.1199606000       19.9063580800       19.1749603100
  H        19.6947441300       18.9349291700       20.4945550900
  H        18.9733572500       19.9923014500       19.4270475900
  H        16.2425879200       18.7502302800       17.3472508500
  H        16.2518322400       19.2732227100       18.7339414900
  H        17.7422868100       21.4700407300       18.5861166900
  H        19.1617683800       21.6024197600       18.0224482400
  H        20.5782701200       22.1986538100       16.4635079500
  H        21.0782987700       21.1920724400       17.6769551700
  H        15.2912268600       22.6320672400       18.8343623800
  H        15.3654285900       23.2027684800       17.4191260900
  H        18.7975211000       18.1937133700       17.5850329600
  O        18.4812500400       17.9698550400       16.6801835400
  O        21.9131146600       20.4677319000       18.9347060800
  O        19.5134228800       19.1770127200       19.6314996700
  O        16.2224595200       19.6036276300       17.8392428200
  O        18.6864992200       21.4294534800       18.8929686300
  O        20.4191256200       21.2867016700       16.8853095300
  O        15.0306271800       23.3925170800       18.2945252600
      21
 i =        1, time =        0.000, E =      -120.4965074110
  H        17.4103565800       20.2292805700       14.6561814000
  H        20.8475098900       22.2079039600       18.3108917700
  H        21.1896146400       20.7966437800       18.9187777900
  H        20.9594023300       19.4039086400       21.1537009500
  H        19.8218402300       20.3076643200       20.7215208200
  H        15.4701574700       19.4797219600       18.2533959200
  H        16.5396067500       20.7726050800       18.1775930900
  H        17.5087999700       20.4291832200       19.9689883100
  H        17.3741696300       19.0999741700       20.8205640700
  H        20.0893866000       19.6143251300       16.0173894300
  H        20.4811353900       20.9485045000       16.7192340700
  H        18.4805333600       21.0900583300       17.1777851000
  H        17.7462604600       22.4199533400       17.8223067500
  H        16.9122930600       19.5770002600       15.8998901600
  O        16.8671072200       19.4835347300       14.9766538600
  O        21.3493338900       21.3754704800       18.1007735300
  O        20.7846560900       20.1301229900       20.5632140700
  O        15.8391764300       20.2879974800       18.6839021000
  O        17.7649899800       20.0450358400       20.8254927700
  O        19.7952641200       20.5826463000       16.1361303700
  O        17.9069195500       21.4492142500       17.9340475400
      21
 i =        1, time =        0.000, E =      -120.5207886657
  H        17.0251580300       19.9280161800       17.4160078500
  H        22.5167963200       21.5920100900       17.8562971100
  H        21.4360912100       20.4050737800       17.9372926400
  H        19.8310963100       18.7518281700       19.0554406200
  H        19.1372998600       20.1497553000       19.3184783600
  H        16.4029214900       19.0367988000       19.5190859900
  H        15.3421331800       18.7666194400       20.6477291200
  H        17.3819378400       21.0499926800       20.3326697000
  H        17.8449527400       21.9131554200       19.1878761900
  H        19.4947499100       20.2116550400       15.6689197900
  H        20.3611528100       21.3850904000       16.2485213100
  H        18.2333505700       21.7938039000       16.8342979600
  H        16.7309511300       21.8778157200       16.5784699500
  H        18.1904279000       19.1386652700       17.8347935500
  O        17.2864535100       18.9608697500       17.5395338700
  O        21.9700676800       20.9861745300       17.2879597400
  O        19.8078536700       19.6998500100       18.7102232500
  O        16.2579625000       19.1065901000       20.5363453400
  O        18.1629461000       21.5798508000       20.0713367300
  O        19.5052632000       21.2439903300       15.7871749600
  O        17.3737331700       21.8004142100       17.2991284700
      21
 i =        1, time =        0.000, E =      -120.5193158389
  H        17.7492196300       19.6693042000       16.3815987000
  H        21.3021825000       20.1131312900       16.8138929800
  H        20.5780575700       19.9600443800       18.2313303400
  H        20.1212547200       18.4036228400       20.1824116500
  H        19.6777691200       19.9078225500       20.1607236500
  H        16.0233597200       19.7118534800       18.4028067200
  H        15.1640414600       20.6956462100       19.3618184100
  H        17.5814757200       20.5678532300       20.0337939200
  H        18.4779145100       21.5438933000       19.3733319400
  H        19.6135795800       20.5541897200       16.1997968900
  H        18.6932995800       21.5021143600       15.3547046900
  H        19.1839401100       23.4900335500       18.4932650400
  H        19.4780640800       22.2375361500       17.5273145000
  H        17.4734682700       18.1442755400       16.8790503000
  O        17.2597469600       19.0813853400       17.0545093200
  O        20.6077366300       20.5821593700       17.4180020300
  O        20.4569010300       19.3022940800       19.8730395800
  O        15.8217387400       19.9738175500       19.3612030100
  O        18.4647747000       21.0413991400       20.2286968600
  O        18.9799707400       20.5736916100       15.4312098800
  O        18.6985240700       22.7914251000       17.9305683300
      21
 i =        1, time =        0.000, E =      -120.5203800024
  H        18.2254840000       19.6576445500       16.8993733100
  H        20.9511685700       22.4047621100       17.6002049700
  H        20.9401767600       20.7526561600       17.6944569700
  H        20.7958244300       19.4818073400       19.8296650200
  H        19.6618833700       20.2329953800       19.4432500500
  H        16.4503003200       19.2508162200       18.5698955800
  H        15.0538055700       19.4228765900       19.1082867700
  H        17.8826367900       19.9955617100       20.5085011000
  H        17.9158650000       21.2649497100       19.6263698400
  H        18.6572258600       21.2032781400       14.8532824500
  H        19.7061222200       21.3707994300       16.0168466700
  H        17.8738552900       21.5591674400       17.2686935600
  H        16.4864224400       21.8360701800       17.9834561100
  H        19.1249392600       18.9541410400       17.9044637700
  O        18.1802200200       18.9222515800       17.5107392000
  O        21.0699655400       21.5503399000       17.1213052000
  O        20.4466415100       19.7382601700       18.9654735300
  O        15.9798199400       19.4152687000       19.4173123300
  O        18.4751328900       20.7822432300       20.3551380700
  O        18.7515145500       21.0562650700       15.8117599100
  O        17.4737946500       21.8257091400       18.1211140100
      21
 i =        1, time =        0.000, E =      -120.5238955960
  H        18.5730788200       19.5528666400       16.6050195600
  H        22.0923328800       21.7789932900       17.8502782600
  H        20.9673535200       20.8737449300       18.1030575600
  H        19.4313126900       19.4305441100       18.8728397300
  H        19.4199086000       20.0980910700       20.2261419900
  H        16.7715184500       19.3674463000       18.4565664600
  H        16.3374627800       20.7981832800       18.7617220100
  H        17.2927972700       19.9978176400       20.5034304100
  H        17.7445120400       19.3454404900       21.9402173600
  H        19.4533147600       21.1370601500       14.7571551100
  H        20.3727948900       21.2115837700       16.1259751400
  H        17.7962455200       22.0263620300       16.8642683600
  H        16.5599826700       23.0427644700       16.8055053800
  H        17.9953954400       18.1429434100       16.7087558000
  O        18.1178637000       18.9314166800       17.2573017100
  O        21.4910161000       21.2704431900       17.3483004500
  O        19.9960082600       19.9405964100       19.4196054200
  O        16.2554125600       19.8866193500       19.1561685100
  O        18.0360769900       19.9044751300       21.1751964500
  O        19.4616825700       21.1398610200       15.7217293800
  O        16.9508397300       22.2537004200       17.2702693900
      21
 i =        1, time =        0.000, E =      -120.4962111278
  H        18.0417641200       18.2015027500       16.7364801100
  H        20.5312832600       22.3748963200       17.6016729100
  H        21.1932095600       20.9751158500       17.2717629300
  H        19.2561195200       18.3266067700       20.4509202500
  H        19.0187060800       19.8873265900       20.1468890300
  H        16.6851295500       19.4975091700       18.3332722600
  H        15.5737177100       18.9799747200       19.4547798200
  H        16.9193554300       20.7491239100       20.0879642000
  H        17.8835034200       22.0617630400       19.8863906800
  H        18.7458972200       20.6535284800       14.6306371000
  H        20.0132316400       20.8855390500       15.3733920000
  H        18.3272826600       22.2032434500       16.9431639900
  H        18.1379956400       23.5768731800       17.5253287900
  H        18.6260309100       18.4833129200       18.2361262600
  O        17.8168270400       18.2150949700       17.7062812800
  O        21.2211838100       21.9446088100       17.0199119600
  O        19.7088437100       19.1254836300       20.0625044400
  O        15.9819484100       19.7410401300       19.0108869400
  O        17.7254261900       21.2417645500       20.4470488900
  O        19.2209386600       20.2961091200       15.4218518500
  O        18.7505907600       22.7597048900       17.6739212000
      21
 i =        1, time =        0.000, E =      -120.4887375535
  H        19.1078771200       18.1211681800       17.4292468100
  H        21.4474742400       21.4875591600       17.5641896900
  H        22.0333672100       21.1433302400       18.9554106100
  H        19.6864636000       18.4412388500       20.1656802700
  H        19.0219036800       19.3698315900       19.1504581900
  H        17.2117397600       19.6656716300       19.9826738700
  H        16.2532289000       20.4181461500       18.8743388500
  H        19.7311761000       21.5587136100       19.2671930500
  H        18.1961990700       21.7726469300       19.3293235500
  H        18.6644837100       20.5450320100       16.5415587100
  H        18.3400249500       21.5322010000       15.2895829500
  H        17.3614113500       22.2893555200       17.3929074100
  H        15.7928397100       22.3568327100       17.5482274700
  H        19.3583633000       17.3384908400       16.0726633600
  O        18.8928117500       18.1305491300       16.4354641100
  O        21.3619067800       21.7061568200       18.4629868400
  O        19.4917796500       18.4992061700       19.1656461900
  O        16.3248983800       19.6398308500       19.4254547600
  O        18.9239963400       21.1357986800       19.6179175900
  O        18.5816141800       21.5193812800       16.2593418200
  O        16.6437791700       22.7443005100       17.9198572700
      21
 i =        1, time =        0.000, E =      -120.4970355766
  H        17.8389672200       20.2958898200       16.4444774300
  H        20.9287572500       18.9682711000       16.5196892000
  H        20.9710300600       19.6598042600       17.8880803500
  H        20.8667609300       19.0189031700       20.1604198900
  H        19.3532729300       19.6278867000       19.7150707400
  H        17.0597214200       18.4079739600       18.1825561800
  H        16.4184541500       16.9731558700       18.2620172700
  H        17.5882163100       20.3293380200       21.1697396300
  H        17.3279552400       20.2011541000       19.5802847800
  H        19.4871945500       22.8048769800       15.4264614200
  H        20.1115688900       21.8565886900       16.5077353900
  H        18.1058521200       23.4283103900       18.1191213500
  H        17.0794473800       24.5536534700       18.2466487600
  H        18.9462772500       19.5432521900       17.1255982700
  O        17.9681798400       19.6858283700       17.2017511100
  O        20.9458898500       19.8458691000       16.8808118300
  O        20.2551044100       19.2276812800       19.4032194200
  O        16.3040600600       17.9084509000       18.5788803900
  O        18.0265630100       20.4464641200       20.2697167900
  O        19.4982322400       22.6560100200       16.3967519000
  O        17.2305111700       23.6283041900       18.5691179100
      21
 i =        1, time =        0.000, E =      -120.5086319708
  H        16.3592912100       20.0304728800       16.2511841600
  H        21.4928324400       22.3439920000       19.6106830800
  H        21.4385252900       21.0852703500       18.9169318300
  H        20.4938715400       18.7199937500       19.3539355200
  H        19.2937750900       19.7887183700       19.2482427800
  H        15.4362463200       19.0683080800       17.8301273800
  H        15.3676311200       18.8297212900       19.2926461100
  H        17.5961997700       20.0727986000       18.3212215000
  H        18.1527346100       21.3000894200       19.1756882100
  H        20.2549525700       20.0167135400       15.6978405300
  H        20.1127641300       20.0344881900       17.2292901300
  H        19.9385357400       22.5268586200       18.4969801600
  H        18.8186587600       22.3967997400       17.4462474000
  H        17.8615986500       19.8697828900       16.5635035400
  O        16.9874764400       19.5090792900       16.8219089300
  O        21.6290191300       22.0933821000       18.6444335400
  O        20.3492847900       19.6913194700       19.2542969200
  O        14.7428457100       18.9469975500       18.5516746400
  O        17.8803692800       20.3122089000       19.2388558500
  O        19.6279910000       20.1375998900       16.4189934100
  O        18.9779012200       22.6818773900       18.3646285300
      21
 i =        1, time =        0.000, E =      -120.5220781865
  H        17.8627107800       18.0603349700       15.5144106200
  H        21.6230071000       20.1821181700       17.2673575100
  H        20.7396900800       20.1767386900       18.6680652500
  H        20.1786766400       19.3486979500       20.9347963000
  H        20.2854927300       20.8120900100       20.4199226400
  H        16.5833014400       18.8216897100       17.4980834000
  H        15.3033119600       19.0304658800       18.3853223800
  H        20.0643994100       22.3436347000       19.0233169300
  H        18.6858073000       22.2253852300       19.5656420800
  H        18.7456641700       21.9748507800       15.9872657700
  H        19.5461474200       20.9005103000       16.8217165100
  H        17.3850795500       21.8768335700       18.0311302800
  H        16.9377081700       20.7704835700       19.0864452500
  H        17.6049282600       19.5365157700       15.6491343700
  O        17.0745334700       18.7010463300       15.5220458600
  O        20.7498656700       20.5080873500       17.7126015900
  O        20.6940238000       19.9035297400       20.3340177400
  O        16.2729616800       19.1051614700       18.4196675500
  O        19.6261759700       22.3299395100       19.8799065100
  O        18.5975514300       21.1060641400       16.4930478600
  O        17.2472963700       21.7201266000       18.9701675100
      21
 i =        1, time =        0.000, E =      -120.5118387344
  H        17.3796478700       17.0151941000       16.8546399700
  H        20.6702730100       21.8230295700       18.1161601100
  H        21.2050143800       21.7178594700       19.6771568000
  H        20.4668930400       19.6781049200       18.5482274300
  H        19.0628286900       19.8580459400       19.0642358800
  H        16.5028151700       18.9865775200       18.2329162100
  H        15.2064469100       19.7426179400       18.2390591500
  H        17.1790935500       20.8698096400       19.4390787900
  H        18.1951236500       22.0667052600       19.4991085200
  H        19.0885048300       20.5137001200       15.4918789200
  H        19.1683178500       20.4958701200       17.0545242500
  H        19.0454683000       22.4784616700       17.2208419200
  H        18.6585500800       23.9786655300       17.4723319300
  H        18.3199958600       17.9691804000       17.6626782800
  O        17.3334281700       17.8418916500       17.3191683000
  O        21.2181558100       21.2943803900       18.7190536000
  O        19.5665922100       19.1748184800       18.5023101900
  O        15.9670049700       19.6482367800       18.8570947800
  O        18.1078752700       21.1048948300       19.7251015900
  O        19.1976761500       21.0772784200       16.2716757800
  O        18.9596892700       23.1610413500       17.9546770900
      21
 i =        1, time =        0.000, E =      -120.5077415309
  H        17.7468289800       19.1660825600       16.3088384700
  H        21.7108696700       23.0388779800       19.3956872100
  H        21.4600982500       22.7049060800       17.9292304900
  H        20.7866722800       20.6278392800       18.5263330100
  H        19.4337212600       19.9069340900       18.7745270800
  H        16.3389667300       18.5046155700       18.4737532500
  H        14.8917474800       18.2540561800       19.2797188200
  H        17.2536955300       19.8696599200       19.8177913900
  H        18.2720318500       19.9396166900       20.9309238300
  H        19.2179017100       20.6869440100       15.1834719800
  H        19.5417671700       20.5985765900       16.6862658000
  H        17.7408466200       22.0795446100       18.2214461100
  H        18.3738537400       22.8771574300       17.1295055400
  H        18.3777504900       18.1072467900       17.1909671600
  O        17.4732577200       18.3597444600       16.8293356200
  O        21.7203993500       22.2895895100       18.8222202600
  O        20.2292025600       19.8439517100       18.1771477400
  O        15.8489337400       18.6464706100       19.3368980700
  O        18.1250827000       20.2662601100       20.0366637900
  O        18.8566033900       20.9340169100       16.0346299000
  O        18.0340784200       23.0149130000       18.0318167300
      21
 i =        1, time =        0.000, E =      -120.4943849370
  H        18.0245456800       18.7792603200       17.0215843500
  H        21.2270134000       22.1831840400       18.1130474200
  H        20.0519118100       23.0600510900       17.6407172900
  H        21.7798537600       19.9495119300       19.3565315700
  H        20.2429681400       20.1675805200       19.5756917700
  H        16.1949519200       18.3223430700       18.6817331100
  H        15.0437957200       19.1864802500       18.4178906800
  H        17.8551553200       20.1806506400       20.2029348400
  H        17.9310262300       21.4939353200       19.2932724900
  H        19.7842726100       19.9462424200       15.9097552900
  H        19.6951758900       20.1112401200       17.5293747100
  H        17.0911665000       23.0993378400       16.9235585100
  H        18.2655620400       22.1152539000       16.6691993100
  H        18.2634125100       17.7900233700       18.1061143500
  O        17.5470409100       18.2746957600       17.7221041200
  O        20.9879602100       22.8453352600       17.4814778200
  O        20.9040966300       19.6349919000       19.0056395400
  O        15.3179664500       18.5404379900       19.1037330500
  O        18.4152673700       20.9983933400       20.0084896200
  O        19.2506065700       20.3881415500       16.6211400300
  O        17.8454627800       22.6714990900       17.3517739600
      21
 i =        1, time =        0.000, E =      -120.5126312645
  H        16.6593904400       18.0666155700       16.2705870700
  H        21.2550143800       22.3049023900       16.6782924000
  H        21.4142053300       21.9887159900       18.1472830700
  H        20.8080291600       19.1409000200       18.6341422100
  H        19.9708957100       20.2996691700       19.0532274100
  H        16.0006169300       20.6005563200       18.8760439200
  H        14.9100400300       19.5057324800       19.1793819000
  H        18.2797341900       20.4827774200       19.7490311100
  H        18.8353340700       20.8076959700       21.0425980100
  H        19.4860232200       20.2055860500       16.9953897800
  H        18.0866501500       20.0976607700       16.3036482700
  H        18.0684575200       21.4184431900       17.7296251600
  H        17.2541222800       22.5500005600       18.4939399700
  H        16.6361700700       18.9528697300       17.5920893600
  O        17.1959937300       18.6530759400       16.7984048400
  O        21.7676298600       22.6251584400       17.4756113300
  O        20.6010867400       20.0201413200       18.3371909900
  O        15.8466764200       19.5874820300       18.9259901200
  O        18.7753529000       20.0434392900       20.4460317300
  O        18.7510691400       20.7624134300       16.6159025800
  O        17.5691331000       21.6594513600       18.6130773900
      21
 i =        1, time =        0.000, E =      -120.5207620610
  H        18.5207931600       20.0171565400       16.5892866800
  H        21.9059273400       21.6478775400       18.1972874800
  H        20.8418838500       20.4494623400       18.2842865900
  H        20.7301518300       18.5875793300       19.5986925700
  H        19.3869969300       19.3227193100       19.9545425900
  H        17.0715719100       19.5663790800       17.9844396800
  H        15.6667315200       19.3080799700       18.6946048500
  H        17.3790065800       20.0422861700       20.1479045800
  H        17.7780182700       19.5061758700       21.5697890300
  H        18.2933357400       21.9945724400       16.3968653700
  H        19.8255023900       21.5541710200       16.0175930400
  H        16.7844508700       21.9218290700       17.8191050500
  H        17.7154343500       22.7920792600       18.6695327400
  H        18.8380466000       18.8985495300       17.8420054600
  O        18.0895263000       19.2531589000       17.1925375200
  O        21.3014069300       21.0451678600       17.6113155200
  O        20.0876466200       19.1825928200       19.1503549700
  O        16.3917959700       19.9348821000       18.7355117500
  O        18.1262238600       19.9691075800       20.8270930800
  O        18.8276806600       21.4337007700       15.7453443600
  O        17.4890398700       22.5837870800       17.7597385200
      21
 i =        1, time =        0.000, E =      -120.5291418569
  H        18.5026896800       19.8825018800       17.0787121600
  H        22.2953491500       21.5165882900       17.8070979700
  H        21.2761457100       20.4244030300       18.3835829700
  H        20.8514539900       19.0032309300       20.2171259200
  H        19.5951878500       19.8752600200       20.0300591100
  H        16.6674611900       19.3976207900       17.8303645300
  H        15.2094459000       19.2468148700       17.2365698600
  H        17.3750652900       20.1097158600       19.8602605400
  H        17.8268486900       21.5501365600       19.7721411000
  H        19.7052172300       20.9043713700       15.2533541500
  H        20.1481306400       21.1321756200       16.6756825800
  H        17.5696183800       22.2637142000       17.3385235900
  H        16.3365573100       21.4584356800       17.9202429400
  H        19.1627454100       18.9580541400       18.1766787600
  O        18.3010073900       19.1083686200       17.7063790000
  O        21.4577662000       21.1032121700       17.6793035600
  O        20.3899293500       19.5041403400       19.5526819000
  O        15.7255696600       19.6658000700       17.9784885900
  O        18.1029207100       20.7023767600       20.2283825100
  O        19.3136856200       21.0497329700       16.1058549200
  O        16.9100381400       22.2615770900       18.0345107300
      21
 i =        1, time =        0.000, E =      -120.5087398546
  H        17.5288596200       17.9787793600       17.7288966300
  H        21.1816223800       21.3070007600       17.6464936000
  H        21.9268403800       22.2363446600       16.6611086800
  H        21.4636371000       19.1505858800       18.6695109900
  H        20.2849507600       19.8402317100       19.3344192300
  H        15.0332605400       20.4616619900       19.9295076700
  H        15.5719842700       19.6258118600       18.8009769100
  H        17.9599858900       19.6744099100       19.7044226900
  H        18.6396168900       21.0886934400       19.6989873900
  H        18.7733766200       20.4989651600       15.4890872000
  H        19.8320466900       20.6265937600       16.5559568800
  H        19.3257669600       22.5019609200       17.9331339600
  H        17.9123919000       23.2255138100       17.7820782400
  H        17.9129483200       19.4597788700       17.2553097400
  O        17.3201437000       18.9392105300       17.8603090000
  O        20.9895821300       22.0388696600       16.9519724900
  O        20.7992285500       19.8828877900       18.5112017100
  O        14.8032922300       19.6545811000       19.3846819100
  O        18.6431093500       20.2231681800       20.1340720500
  O        19.2261190900       19.9755753000       16.1653402700
  O        18.3674403500       22.5578493100       18.3026272100
      21
 i =        1, time =        0.000, E =      -120.5066530882
  H        17.7765811100       19.1845446700       16.3488969000
  H        22.3105664100       20.9480759300       17.5190130500
  H        21.1529558200       21.2750045600       18.5781128400
  H        20.3312871900       19.2390218000       19.9713204500
  H        19.4690375300       20.5279708500       20.1472095200
  H        16.3000235000       18.8386110500       18.0900551000
  H        15.1173723100       19.4708068200       18.9531798300
  H        17.2955982700       19.8981637100       20.4524819200
  H        17.5483483400       20.3137897000       21.8934936900
  H        20.1260023400       20.4060605000       16.2689253200
  H        19.3582328300       20.0287008200       17.5694898700
  H        19.0139137400       22.3828051400       16.6193247800
  H        17.9699485000       22.7906431600       17.6035249600
  H        16.2903305600       19.4074371000       15.9073510600
  O        16.8262121200       18.7512901900       16.3934094900
  O        21.4640945600       21.4594713100       17.6211980600
  O        20.2104373800       20.1419515700       19.5874824100
  O        16.0918827500       19.3241984100       18.9149067400