      54
 i =        1, time =        0.000, E =      -309.9568777439
  H        18.3234523500       17.6669891300       17.5020752200
  H        20.3970409400       20.1391864800       17.3813345600
  H        21.8312561600       19.8270462300       17.0671053500
  H        18.8782087600       16.2993182100       20.1745462900
  H        17.8092555500       17.4991175700       20.3510988600
  H        18.3923011200       23.6363280200       20.8405475600
  H        19.4863095900       24.3324187000       19.8579938000
  H        16.8277659500       18.0241516300       18.8556501600
  H        16.7627778800       19.1325282000       19.9427744000
  H        21.1733928900       24.6135983000       18.3555108700
  H        21.7033224100       23.8909435500       19.5514818400
  H        20.7009774600       19.6360463300       22.4906158300
  H        20.5914389400       19.8603323100       20.9048840900
  H        18.3686271600       20.5149957300       15.7976246100
  H        17.7886447700       21.0739714500       17.1458362200
  H        24.5270802400       17.1502040700       19.3637595900
  H        23.1668462800       17.7074075600       19.8831295800
  H        18.7422656900       17.9726092400       22.4209894500
  H        19.1377762100       17.5604007800       23.8515716000
  H        16.5596226700       23.3549985500       18.1638644800
  H        17.7976387100       23.0718196100       19.0019232300
  H        23.8224089300       19.1420317800       18.4307067800
  H        24.2357394700       20.3943060800       17.5980375900
  H        18.7747563600       20.1825838600       19.9581935700
  H        19.5124786700       19.0544550200       18.9220797800
  H        20.6163150400       17.7176232700       20.7391231400
  H        21.0785589100       17.4894948600       19.3533802700
  H        19.6170213700       21.2423521400       22.2426451000
  H        18.9152570200       22.4219363700       23.2315096600
  H        22.7477684300       21.5098993000       19.2985193400
  H        22.3653307900       21.9826322600       20.7489190900
  H        20.7321539600       16.5612215700       17.0981529200
  H        20.6115913900       18.0849203800       17.1638712900
  H        17.5521760300       21.4116176600       21.1146753400
  H        17.1163952300       21.3551748200       19.5371884200
  H        17.4376949600       18.6720538600       16.7205705400
  O        17.4162526100       17.8580033200       17.2489378100
  O        20.9375716500       19.7082327300       16.6746225500
  O        18.7568839700       17.1839283100       20.5817915000
  O        18.5081549000       24.1001080900       19.9299562400
  O        16.5757009000       18.1465516700       19.8032243800
  O        21.0169417100       24.5438589400       19.2725117900
  O        20.8455175000       20.3007666600       21.7655220400
  O        17.6123490900       20.4319402200       16.3793676700
  O        24.0720718300       17.9519774400       19.5945013400
  O        19.1284421500       18.3437096900       23.2785177900
  O        17.1210697800       22.5953027500       18.4579576800
  O        23.4805387300       19.7588868300       17.7428487700
  O        19.5505273800       19.9890852300       19.2516203400
  O        21.4757313200       17.6321450300       20.2524332100
  O        18.8356495700       21.9989748700       22.3716482200
  O        22.8862600200       22.2479590600       19.9516987900
  O        20.3795427300       17.2349322200       17.6732443400
  O        17.2117731000       20.8227069400       20.3824364900
      54
 i =        1, time =        0.000, E =      -309.9534718184
  H        18.1009814900       17.3955730500       16.4314962000
  H        20.3383986100       19.5815400200       17.8949028700
  H        21.6087638300       19.5666048000       17.0187563100
  H        18.5585052800       16.5250602100       20.7599440300
  H        17.6467790300       17.6757664600       20.3862465700
  H        19.0787256400       23.2826556300       21.2526187500
  H        20.1126645700       23.2557850800       20.0113367700
  H        16.5946617800       17.9715110000       18.2246505800
  H        15.9108738800       19.0819433400       19.0912853300
  H        21.8833555900       24.8405580300       19.7446160300
  H        22.3659045700       23.3189695800       19.7607338000
  H        21.1370763200       20.5936257100       22.3991116500
  H        20.9259278800       20.4216614000       20.8988017700
  H        18.8590542400       20.9197165900       15.9351729700
  H        17.9048942000       21.2750367800       17.0794753200
  H        22.8093303800       19.2924135800       20.6810806200
  H        22.8185028400       18.1407069800       19.6807242700
  H        19.0815327200       18.6128348600       21.9698365800
  H        19.1410797600       18.6508629300       23.5640983300
  H        17.0180289800       23.5182631300       18.2565461600
  H        18.0278350700       22.7503268700       19.1763655000
  H        23.5006038900       19.7244760600       18.6336164000
  H        24.1859547000       19.7146730200       17.2613167100
  H        19.2803724300       20.9909270300       19.6067224000
  H        18.4922426700       19.8144817500       18.9054376000
  H        21.2304382200       16.9613521200       20.4683500600
  H        21.1328231900       16.9836475200       18.8828028000
  H        18.6339814700       20.9579283300       23.0610598800
  H        17.9406421600       22.3372983000       23.6886853700
  H        23.6615403100       21.7978824900       18.9479500700
  H        23.4354027500       21.5752129100       20.3403024500
  H        21.1619087200       16.1311609700       17.1580974900
  H        20.4203611400       17.5536213600       17.2014039200
  H        16.4110791400       21.2351743600       21.5001544600
  H        15.9955565700       21.5915333500       20.0394786100
  H        17.6678009500       18.8850780300       16.3306277500
  O        17.3489252200       17.9833029100       16.5656894600
  O        20.6995932300       19.1805074400       17.0861174500
  O        18.3827404000       17.4269179200       21.0521901300
  O        19.2073939000       22.9614149800       20.3171852200
  O        16.3846674800       18.2374041800       19.2285753500
  O        21.5603327200       23.8771241200       19.8010023700
  O        21.5528439600       20.8218088800       21.5107955500
  O        17.9776111800       20.6682218800       16.2870306700
  O        23.3620176800       18.9703255300       19.9500053000
  O        19.3471617900       19.1748728900       22.7787160000
  O        17.2845055000       22.6209577400       18.5600859300
  O        23.4224118700       20.1287727500       17.6843263900
  O        19.3533212700       20.1053215400       19.2704400400
  O        21.8233268500       16.9149098200       19.6565973100
  O        18.1720642500       21.8372210800       22.8840647900
  O        23.7918829100       22.2953198900       19.7730727400
  O        20.3218561300       16.5707254100       17.4222408400
  O        15.8830946100       20.9013638800       20.7102400700
      54
 i =        1, time =        0.000, E =      -309.9773201376
  H        17.2939339500       17.2598470100       16.4105915700
  H        20.8938078400       20.3350851100       18.5615013800
  H        22.1659508200       20.6763551800       17.8126538500
  H        18.5457515700       16.7047881200       21.8153840200
  H        17.6843796000       17.2504811500       20.6043403200
  H        18.2729006800       24.4106969800       18.3749385700
  H        19.4073935900       23.5159211200       18.8874698200
  H        16.3672039100       17.3412321900       18.9564171300
  H        16.4496110900       18.5215944500       19.8334187800
  H        21.1548553400       22.6911365400       18.2889313500
  H        21.5986495500       23.4675605300       19.5708888600
  H        21.0493942600       19.8969271100       22.9214868400
  H        20.7717242800       20.4034569000       21.4958899800
  H        19.8298035100       20.4528111200       16.6552179600
  H        18.3181686700       20.3458504600       16.4455003500
  H        22.6190621700       19.2078431900       21.4614437700
  H        22.9410262300       17.9702762800       20.6107322600
  H        18.6702794600       18.7946773600       22.3234760400
  H        18.2067908900       20.1519880400       22.8897515400
  H        16.1410705100       22.1678263300       17.1711960100
  H        17.5233376600       22.5116163300       17.7995335100
  H        23.6326481500       19.6443921800       19.6087083900
  H        24.6410112700       20.5609047900       18.7977201200
  H        19.0241552300       19.7337708500       19.8753958900
  H        20.1877035800       18.6478476000       19.9575145900
  H        21.4726786600       17.1072006000       18.5486831500
  H        20.8715839000       16.1940750900       19.6023317800
  H        18.8309148100       22.4074436200       21.8561395100
  H        17.7170461500       22.9535257900       20.8933497000
  H        23.0230615500       22.0230304800       20.0421193200
  H        22.3038374100       22.0929849200       21.3864436100
  H        21.1761693800       17.8871154100       16.1679690500
  H        20.1577846100       18.5546916400       17.0006869900
  H        17.6073253800       20.7379541500       20.5794692100
  H        17.0913457700       20.6292758900       19.0356808400
  H        17.6876755000       18.5371074000       16.9985261500
  O        16.9841603000       17.8399994500       17.1284595700
  O        21.1901584100       20.8851295400       17.8084557800
  O        18.5867301200       17.4071463900       21.1032861800
  O        18.3615339500       23.5324186300       18.7778909000
  O        16.3393346400       17.5497989100       19.8839640300
  O        21.0178980600       23.6312920800       18.7493917500
  O        21.4844228800       20.4178224900       22.2052545100
  O        19.1583902100       19.8869980400       16.1838605100
  O        23.4213392900       18.7751793400       20.9771102000
  O        18.9047398300       19.4738224000       23.0881788000
  O        16.9621223400       21.7275099100       17.4904726100
  O        23.7005333000       20.2440911200       18.8177015000
  O        19.9897728300       19.6307415200       19.8840971700
  O        21.3052645500       17.0442517900       19.5477334200
  O        17.8916979500       22.2486789200       21.5820478000
  O        22.5920323700       22.6479127700       20.6262734500
  O        20.7176368100       17.7620433800       17.0683029100
  O        17.3778334900       20.0432646900       19.8050514800
      54
 i =        1, time =        0.000, E =      -309.9355646904
  H        16.2275606600       17.9273629900       17.1029656900
  H        21.5207701400       20.1818482700       17.7081454400
  H        21.8716288400       20.4698287700       16.0852155800
  H        19.9223801300       17.1785653900       20.7159639000
  H        18.2684235500       17.0939532900       20.7727582900
  H        18.9660894100       22.5750096000       20.3298988500
  H        20.0572448800       23.5097693700       19.7043798300
  H        16.8127213900       17.4458583700       18.8466309900
  H        16.6614077100       18.7004719000       19.7959954700
  H        21.3618938000       25.1801389600       19.7006284900
  H        22.2202921400       23.8583079600       20.2557094400
  H        20.3970633100       21.3221808200       21.6528739700
  H        20.4474052000       20.1020866100       20.7402793700
  H        19.3635813800       20.2531724700       16.3744759900
  H        18.1455416100       20.9498805000       17.1174496700
  H        22.5946828400       18.0405801400       20.5247566600
  H        22.4776092900       19.4897956200       21.1700868600
  H        18.4484416100       18.8773690900       23.6268057600
  H        18.1582052000       18.5200832100       22.2063360400
  H        17.0768650100       23.8868032200       17.4426169500
  H        17.9847052600       23.0432371700       18.3579557000
  H        23.2480481200       19.8602490300       19.4711621100
  H        24.0169683000       20.3158148600       18.1514373900
  H        18.9739489300       19.6548008500       18.5679331800
  H        19.6712886600       18.4195448100       19.2378725700
  H        21.6038983200       15.6064700100       19.8757419900
  H        21.4321465200       16.6399676400       18.6555179300
  H        17.8846078600       20.8872924000       22.1480549800
  H        17.7871897400       22.3995856600       22.2951903100
  H        23.5007145900       21.9408261300       19.8900818200
  H        23.0472682600       21.9858955500       21.3274663600
  H        20.4008334600       16.2841237400       16.6879368300
  H        20.9403074200       17.7456083700       16.5835768700
  H        16.7860385600       21.4287552900       20.1230609000
  H        16.5045799000       21.7108882300       18.6682398300
  H        17.5325857200       18.6185948200       16.9012537100
  O        17.1586255700       17.6580110200       17.0864648600
  O        21.2603988000       19.9836693300       16.6957601600
  O        19.1035658700       17.3021970400       21.3185281100
  O        19.0900584900       23.1824142900       19.5217243100
  O        16.6272297400       17.7095255100       19.8645041700
  O        21.3963698300       24.3978340700       20.2988771300
  O        21.0157272400       20.5937264000       21.3830030800
  O        18.4093612000       20.1951358500       16.5520756100
  O        23.1508657300       18.8770068600       20.7725660700
  O        17.9026554400       19.2021695700       22.9245100000
  O        17.3326015600       22.9837848400       17.6083255700
  O        23.3251433900       20.6023825700       18.7623921800
  O        19.4273622400       19.3586782300       19.4110580900
  O        21.4022235600       16.5507917700       19.6867021800
  O        18.2917075200       21.7255461700       21.8148515900
  O        23.3387537500       22.5848115000       20.6412164900
  O        21.0164696200       16.8773434900       17.1357959700
  O        16.6744291900       20.9431995900       19.2759566200
      54
 i =        1, time =        0.000, E =      -309.9660641357
  H        18.9958879400       17.5861088300       17.1234441200
  H        20.5953272800       20.5530181300       17.7800181800
  H        21.9880631700       20.4731799300       17.1081639200
  H        18.8388602000       15.7571678100       21.8852776300
  H        18.3246479000       16.8808273700       20.9046435300
  H        18.2847086100       22.1491278400       21.1787072700
  H        18.7032867900       23.2418917200       20.2279114300
  H        17.2284099200       17.7122261900       19.3717075800
  H        16.6487938000       18.6627935400       20.4270079700
  H        20.1884388900       25.0991678300       19.0569488700
  H        20.8352418800       23.8036521200       19.7081876000
  H        21.0768109500       19.8250239200       21.9941198500
  H        21.2489955200       20.2373928700       20.5233696400
  H        18.7560382000       20.8874932700       16.2508369600
  H        17.5324780500       21.7677325800       16.6831243300
  H        23.1742385300       19.0407264200       20.6019996800
  H        22.9329767100       17.8200853600       19.6083234700
  H        19.2675529300       18.1692992200       22.4712504300
  H        19.8355579000       18.5403915000       23.9518841600
  H        16.8978847500       24.3359282700       17.1613582200
  H        17.3150176200       23.5587536900       18.3966915300
  H        23.5033589900       19.8648024600       18.6235607800
  H        24.2738840700       21.2056184400       18.0203224000
  H        18.8334596300       20.8279165000       19.5217285100
  H        19.2916584000       19.3370820700       19.0830725100
  H        20.5759531100       16.3113532500       20.0550417000
  H        21.0607640900       16.3370824900       18.5644851500
  H        17.9484333900       22.1488339100       23.6151445500
  H        18.3688114700       20.6613310900       23.3766177200
  H        22.7465610000       22.5968784500       19.5533165400
  H        22.1452337000       22.0336146200       20.8300735200
  H        21.0292941100       17.2729743400       16.0160758700
  H        21.1401484600       18.5618279800       16.9385882200
  H        16.5921917900       21.3557741500       19.7472282400
  H        16.4861667600       20.5660084000       18.4045939200
  H        17.8762537500       18.7450094700       17.0643114900
  O        18.2577078100       18.0533928400       17.6079753900
  O        21.0369229400       20.1250554000       17.0133387500
  O        19.0909317600       16.6117068700       21.4901605900
  O        18.1493301600       22.4579849000       20.2829601000
  O        17.0425494700       17.7831914900       20.3198716500
  O        20.0897690100       24.1350450700       19.1392697000
  O        21.7913902500       20.2266758100       21.3684427900
  O        17.8125409200       20.8510024700       16.4723321300
  O        23.5237228000       18.6037712000       19.7930969000
  O        19.6083039000       18.9188931600       23.0548865500
  O        17.3376271500       23.4656096000       17.4175259400
  O        23.4378501500       20.6946492800       18.0379026700
  O        19.6442813600       20.2168675500       19.4404349500
  O        21.3510903900       16.1180461700       19.4829648500
  O        18.1527404900       21.4782047000       22.9257768000
  O        22.2558522700       22.9048217800       20.3682407100
  O        21.0887000800       17.5284963900       16.9545976200
  O        16.3639783000       20.4399335900       19.3947233000
      54
 i =        1, time =        0.000, E =      -309.9430693307
  H        18.2623351800       18.1947842800       18.2988220800
  H        19.8607240700       20.4566798700       18.1859692000
  H        21.1982408000       20.3460117600       17.3369444500
  H        17.0886241900       15.9821225800       21.7720180100
  H        16.5618279600       17.2126404200       21.0462581100
  H        19.5356006100       25.6203814100       19.4049923100
  H        20.4262160200       24.5698557800       18.6254007100
  H        16.2595744900       17.6570740900       18.6955709300
  H        15.6956408700       18.7523911700       19.6448992300
  H        22.6074818700       24.3242328700       18.5212391600
  H        22.2942407300       23.0566024200       19.3932300800
  H        20.8377484900       19.3275628800       22.6235983400
  H        20.8525017100       20.0225445700       21.3006281000
  H        18.8116266500       19.9513779900       16.2836499400
  H        17.9710623200       20.0119702300       14.9156004600
  H        24.4762685700       18.7444555900       20.4151061700
  H        23.0380449800       18.6004420600       19.7340714700
  H        18.4916789100       17.8394753700       23.0019808000
  H        19.1441394300       18.4211482000       24.3003153900
  H        17.4361367100       22.9457213000       17.3992933300
  H        18.4453205300       23.6475037300       18.2555057300
  H        23.3686892200       20.0690450400       18.5054003300
  H        22.8682185000       21.2888415600       17.5659902400
  H        18.5944110100       19.6531956600       20.1912804100
  H        18.8074839700       18.2075504700       20.7142095400
  H        20.8919630400       18.1209552600       19.6312919000
  H        21.7168737900       17.5236726200       18.4453409900
  H        18.5708476500       21.8812061600       23.3870808400
  H        17.9099744400       20.4293813600       23.2418706500
  H        22.5890938300       22.0462651900       21.4346602600
  H        23.5247624900       21.3830165500       20.5236438100
  H        21.1710529100       16.8378644300       16.0563774000
  H        20.8459902400       18.3799053200       16.4663284500
  H        17.4526858700       21.4281081700       21.0128885900
  H        17.8200165400       21.4654478700       19.4259053600
  H        17.5825288100       18.0431153400       16.8596254500
  O        17.6217172600       17.6107981000       17.7557321800
  O        20.2401826700       20.3469993500       17.2536620600
  O        17.3470765500       16.9275158400       21.6443076400
  O        19.5119128400       25.0576097900       18.6026893400
  O        15.7233124400       17.7818557900       19.5405241400
  O        21.9840632600       23.5771391500       18.5692391200
  O        21.1457803000       20.1621687400       22.2026493400
  O        17.9121471700       19.7244904500       15.8602519100
  O        23.8361087200       19.1811552800       19.8482770300
  O        19.0829668100       18.5431022700       23.3392776700
  O        17.8973694800       22.8459522300       18.2235483000
  O        22.8332324700       20.2872340400       17.7038173600
  O        19.2887215500       18.9219948800       20.1798400900
  O        21.7237020900       17.6142204400       19.4408450600
  O        17.7871496800       21.4019274500       23.0015117800
  O        22.9612495000       22.2290816800       20.5459937500
  O        21.4297204500       17.5910486900       16.6270910900
  O        17.5533673000       20.9026494000       20.1756058000
      54
 i =        1, time =        0.000, E =      -309.9261317614
  H        17.2704035700       17.4547285300       17.8000566500
  H        20.8306219100       20.2066110000       17.7140265900
  H        21.9099601600       19.7695768500       16.8143606500
  H        18.2343807200       16.7554045700       22.4055395600
  H        17.5114611300       17.7710504600       21.4509821100
  H        18.1446137800       23.1794343800       20.4066853200
  H        19.1201399900       24.2467207600       19.5153519900
  H        15.8057340000       17.7414140700       19.7073000700
  H        16.6784026600       19.0953097400       20.0799101600
  H        20.9860536200       24.9753611900       20.9950332200
  H        21.4601567200       24.4265587200       19.5912972300
  H        21.2344920800       20.0520229400       22.6559926900
  H        20.7115557900       19.8110402300       21.1793156500
  H        18.7287876400       19.7556745200       15.4907661400
  H        18.0754856600       20.6037277900       16.7133852500
  H        23.0017884200       19.3882839200       20.7800996000
  H        23.1413867900       18.1602703200       19.9025129700
  H        19.2015489600       18.7247580900       23.4108691800
  H        20.4567734500       18.5961794600       24.4550796800
  H        16.7607574600       22.3161453100       17.2492159600
  H        17.8276980500       22.6767542600       18.3380490100
  H        23.9139218300       19.8667420300       18.5797564900
  H        24.6740484400       21.2290278600       17.9295971900
  H        18.7968709700       19.4764795600       19.7100621600
  H        19.7397873900       18.1342735000       19.9665407500
  H        21.4260172200       15.8843399800       19.6533531400
  H        21.4059224800       16.9407183100       18.5244741800
  H        19.9965775800       21.8206205700       21.5408362000
  H        19.5722669300       22.7002106800       22.7526914700
  H        22.5409407600       21.6252901500       18.9165285100
  H        21.5228730500       21.6006698700       20.0248732200
  H        19.3028862600       16.9712304400       16.9271344200
  H        20.5111007500       17.8987765500       17.3011508100
  H        17.3025216900       21.1774554700       20.9202261600
  H        17.1160773500       21.2071046900       19.2956894700
  H        17.3973408600       18.1226604900       16.5828613000
  O        17.4472727600       17.2220872500       16.8567406200
  O        20.9634469100       19.7168376100       16.9311354000
  O        17.9372421800       17.7390508800       22.3357096000
  O        18.1697892100       23.7689180900       19.5304563100
  O        16.7000999900       18.1238388500       19.7713789800
  O        20.8051459200       25.0535604400       20.0301203300
  O        21.3861470400       20.3631570600       21.7267783400
  O        17.8670125100       19.9548862900       15.9379337400
  O        23.6942440500       18.9128779900       20.1644416600
  O        20.1053821000       19.1235250700       23.7307738800
  O        17.5573630900       21.9569741900       17.7001541900
  O        23.8596910800       20.6956460500       17.9550369400
  O        19.7092351900       19.1421020600       19.9492216600
  O        21.5442979200       16.8701294100       19.4689203900
  O        19.2291662500       22.3696377800       21.8763347200
  O        21.7771318400       22.1114992200       19.2595480100
  O        20.2980370000       16.9841192900       16.9438577000
  O        16.8730693700       20.7291393100       20.1784398500
      54
 i =        1, time =        0.000, E =      -309.9582374601
  H        17.3385816600       17.2946082700       17.4895357200
  H        20.3340897800       19.8101755400       18.3864254200
  H        21.9285616500       19.7764019100       18.0247097500
  H        17.3566900000       16.4844896200       21.1810437500
  H        16.6260198000       17.8572569600       20.7457619300
  H        19.1187325600       25.0580975100       18.3208765100
  H        20.4564095200       24.2459184300       18.6145337900
  H        16.3360823400       18.6455649500       19.0397341500
  H        16.2811690900       19.8046545000       20.0770705800
  H        22.3568370700       25.1094211300       19.6120174000
  H        22.3748416300       23.7009817100       20.4080211200
  H        20.7355119300       20.1686924400       22.3482754300
  H        20.2760541400       20.0110451500       20.9134712800
  H        19.3384906100       19.5385222200       16.1790326300
  H        18.2054724700       20.6053542800       16.4874160300
  H        22.3867459200       18.7693586500       20.9973097000
  H        22.7494462800       17.2753706200       20.4897227100
  H        18.4234017600       18.8016070200       22.6787366100
  H        18.5011900900       20.0913189600       23.5857000100
  H        17.4363893700       22.7622776200       16.3546533000
  H        18.6057075400       22.8968987000       17.3738308200
  H        23.4807477200       19.1040822300       19.5520367500
  H        24.2982848600       19.7342447100       18.3168234500
  H        18.2510259200       19.7157767200       19.8153901000
  H        18.8101428300       18.4332095300       20.1505670200
  H        21.1887060200       15.0334808900       20.0953011600
  H        21.5873657300       15.8594602300       18.9351457200
  H        19.6660029100       23.2760081600       20.4202888900
  H        19.7623029700       21.9956534600       21.3435192200
  H        23.0848944800       21.6606557500       19.9257526600
  H        22.3471656100       21.6548132500       21.2250568000
  H        20.6253277300       16.5146352900       16.7109348500
  H        20.8786246500       17.7838429600       17.5863681500
  H        17.5314495000       21.9730422100       20.7500001000
  H        17.1040413700       21.6014899300       19.2980628800
  H        17.2105661500       18.6828153300       16.8263535200
  O        16.6833215600       17.9777993500       17.3121277200
  O        20.9733634000       19.6941054400       17.6137136300
  O        17.4322925600       17.4593234700       21.3070246300
  O        19.5154809400       24.1961486400       18.1958043300
  O        15.9304597400       18.8873347100       19.8970593900
  O        21.7432515500       24.4023079000       19.8273553700
  O        20.9179897700       20.5495837300       21.4543475100
  O        18.4073147200       19.7148000500       15.9935981700
  O        23.1394672900       18.1809213900       20.6171714600
  O        19.0387235500       19.4030608800       23.1461457000
  O        17.8106818600       22.3052243800       17.0910546500
  O        23.4862215300       19.8660939500       18.8558729300
  O        19.1479869600       19.3372796200       19.8358329000
  O        21.9012390400       15.5745598500       19.8291020500
  O        19.1568247600       22.7425354800       21.0624815800
  O        23.0226665600       22.2500926900       20.7481241900
  O        20.7380620800       16.8064706100       17.6102062300
  O        16.8354756100       21.4041175500       20.2663735100
      54
 i =        1, time =        0.000, E =      -309.9457124285
  H        18.7608401800       18.8778949200       17.1793047800
  H        20.0955806100       19.6332658100       18.2908098600
  H        21.2914349000       19.6761271100       17.1484544600
  H        19.2705753800       16.9568381000       20.0574558100
  H        17.7347464500       17.3575680200       20.5222599000
  H        18.0285543400       24.0544237000       20.5999202000
  H        19.2098005500       24.2307915100       19.5878816800
  H        16.7860534300       17.8936707400       18.5974414100
  H        16.1723529900       18.7796520900       19.6188092400
  H        21.3360448500       24.6663273400       18.2454401900
  H        21.9535007200       23.7500107800       19.5101517700
  H        22.4419800100       19.7726284400       21.3605447300
  H        21.0391595000       20.3152873100       20.8778314300
  H        17.6436648200       21.3615842200       16.0498982000
  H        18.2013654500       20.9646402000       14.7306868800
  H        23.2929451000       17.8886824700       20.3955793000
  H        24.6368280300       18.3505825800       20.8646449100
  H        18.7568871600       18.3752707100       22.7959643000
  H        18.9331310600       18.5620008200       24.2729905700