      18
 i =        1, time =        0.000, E =      -103.2920551913
  H        21.7450517900       17.3740256900       21.1661714800
  H        21.0349734000       18.7448032300       23.3969006200
  H        21.6193740400       20.0577898300       22.8844760000
  H        23.5643699800       20.4978025900       21.1531237500
  H        22.2969410800       19.6888349600       20.7906104100
  H        19.2477710400       19.7267818100       19.9480670300
  H        18.7752494900       20.3855797100       18.5115352500
  H        21.9477219000       17.6915538400       18.5094243800
  H        20.8681768400       18.8507906800       18.9785854800
  H        19.8569688700       20.0897091200       22.1194180300
  H        19.4661520100       21.1814493700       21.1111387500
  H        22.9068563700       16.5030056700       21.6940297500
  O        21.9279226600       16.5906867500       21.8047786400
  O        20.8828099400       19.6732608700       23.4502845100
  O        22.5958112900       20.4472191200       21.3584084000
  O        19.3379436100       19.6766988600       18.9138967200
  O        21.6903721800       18.3539722200       19.2316269700
  O        19.1475112900       20.3142521500       21.4653936500
      18
 i =        1, time =        0.000, E =      -103.2858217042
  H        20.4567117800       16.7113718700       20.2501760900
  H        20.7934078500       18.4755973500       23.9230838600
  H        21.2444817700       19.7879320500       23.1534377000
  H        22.7442191700       21.5525206600       22.5172618400
  H        22.6454291100       20.4467754500       21.2640771400
  H        19.5796894700       19.1134747100       19.3729620900
  H        20.5874903700       18.9187745300       18.1873357800
  H        21.6466055600       19.4108215900       19.8520118400
  H        22.6212782100       18.4405664200       20.5003485100
  H        19.4501719500       20.2298947600       21.3785741600
  H        20.2154392400       21.2453798900       20.5510120200
  H        20.3890508800       16.0813282900       21.7507589100
  O        20.9972838300       16.5321388800       21.1120843500
  O        20.4766066600       19.3064085000       23.5262754800
  O        22.1735524100       20.8644317100       22.0867500600
  O        19.8912158500       18.4360754800       18.7701892200
  O        22.5857481800       19.3422452700       20.0992483200
  O        19.5181725800       20.5985859900       20.4762656400
      18
 i =        1, time =        0.000, E =      -103.3051897928
  H        20.4822763400       17.6747299300       22.4325362100
  H        21.1507012100       19.7257302600       24.0510714500
  H        21.3105961400       20.2216886500       22.5754333100
  H        22.6316890600       21.7883927300       20.6589309500
  H        22.3586052400       20.3211850500       20.5264744800
  H        19.4585394600       17.8050794700       18.7317432100
  H        19.7860734100       19.0727897100       19.6011865700
  H        22.2939322200       18.1762261000       19.7152424200
  H        22.2126258700       18.3028007600       21.1905321800
  H        20.1867614200       21.1034078500       20.2251428600
  H        19.1152048700       20.3874432200       21.2795371500
  H        20.2824614700       17.2586670500       20.9616195700
  O        20.6641344100       16.9418411400       21.7938381600
  O        20.8966909400       19.5063142200       23.1234922100
  O        22.0343102500       21.0986921100       21.0553621700
  O        20.1331631800       18.1373388000       19.3725012000
  O        22.6878636400       18.6724166400       20.4401329700
  O        19.2960054900       20.6335840400       20.3328394700
      18
 i =        1, time =        0.000, E =      -103.2632166087
  H        23.1650076900       17.1155142300       22.4091708300
  H        20.3016285100       19.7031310700       23.9692553900
  H        21.4196912700       19.9186443500       22.7782106700
  H        21.6826985400       22.3706751400       22.4273372400
  H        20.5316948100       22.0408284400       21.5797006800
  H        19.8341574700       19.8743886300       18.6894812900
  H        20.5044691000       18.6292292700       18.1349621100
  H        22.7512885200       18.8230643300       19.4156645700
  H        22.4988871600       17.5158633000       20.0747283100
  H        18.4959156400       18.9454260400       21.2543886000
  H        19.5089432400       19.4237019500       22.2603374100
  H        21.6220041200       16.7183460700       22.4759568200
  O        22.3812126400       16.8905588400       21.8764217000
  O        20.9254834700       19.2854584500       23.2779882300
  O        21.3756856600       21.6856028000       21.8307556000
  O        20.0204458800       19.4686022200       17.8358297100
  O        22.3070207300       17.9714144500       19.2285182000
  O        18.6363594700       19.7363908400       21.8468950400
      18
 i =        1, time =        0.000, E =      -103.2998584070
  H        22.1148424500       17.8976650900       21.9053296300
  H        21.7186512000       19.6910197700       23.6648962200
  H        21.8483514900       20.5106776200       22.2084774800
  H        22.7715497300       21.9349248900       20.3611681700
  H        22.1685374100       20.5473431600       20.1277669500
  H        18.6963757700       17.3382229800       19.7929039600
  H        18.9267550500       18.6074693900       20.7117569700
  H        22.2569618600       18.6045537600       19.1431085300
  H        20.7576003600       18.9291214100       19.3771881200
  H        19.2911787800       19.5601394700       22.7633749000
  H        18.0613176600       20.4297470000       22.1727466700
  H        21.6741205900       16.6951064100       21.0291389600
  O        22.4371500100       17.2723730200       21.2224707900
  O        21.4261795900       19.7409424200       22.7614890000
  O        22.6659563600       21.0797328800       20.7993527200
  O        19.1943766200       18.1242156000       19.9089515400
  O        21.6312865800       19.3176899600       19.0410216300
  O        18.4191657500       19.5240428100       22.3024457400
      18
 i =        1, time =        0.000, E =      -103.2986955128
  H        21.5336827500       17.8353114800       22.1833823000
  H        20.9920232700       20.4879972000       24.1534982200
  H        21.7284841200       20.0104607600       22.8127027200
  H        23.5329973400       20.5540417500       21.1809243800
  H        22.3166722000       19.7989912200       20.6003553100
  H        19.0341198500       19.0718091300       20.2032471000
  H        18.6543172900       17.9446593800       19.1756495300
  H        22.2926513300       17.8862827000       19.0054385600
  H        20.9130863400       18.6785721800       19.0357295700
  H        19.0410260300       21.2481911600       21.1168972700
  H        19.7987242700       20.2562927000       22.1354017900
  H        21.1749813800       17.7502483500       20.7721498400
  O        21.7465710900       17.3046393800       21.3878953000
  O        20.9016605900       19.8707926200       23.3826131500
  O        22.5673789300       20.4962627800       21.2763825900
  O        19.4323657100       18.2740154700       19.6389193200
  O        21.9036073000       18.7737453800       19.0403039200
  O        19.1767574400       20.2905953600       21.3652168700
      18
 i =        1, time =        0.000, E =      -103.2924928918
  H        20.6618278700       17.5847774800       22.2889126000
  H        20.7395730300       19.5862225800       24.1004673500
  H        21.4789948800       19.7298510400       22.7234208700
  H        23.2248624300       20.9735643900       21.6070412600
  H        22.8333849900       19.8004846500       20.7641057900
  H        19.5873206800       19.4758450000       19.7476081900
  H        18.1547894500       19.1187092600       20.1867013200
  H        21.7591245700       18.0190316000       20.1033059700
  H        23.1246519400       17.7399733200       19.3311165700
  H        20.2084401300       22.0092403600       20.0107703000
  H        20.7484377800       20.7236201100       20.5304741100
  H        19.8014337600       17.3222402600       20.9087985400
  O        20.6161200600       17.1145698100       21.4478944000
  O        21.2085216700       19.0763136200       23.3982863300
  O        22.4501483100       20.4050535600       21.4130280600
  O        18.9360501700       18.6752433800       19.7870893000
  O        22.4996462400       18.4709175600       19.5394521400
  O        19.9353147100       21.2326266400       20.5101583800
      18
 i =        1, time =        0.000, E =      -103.2845083003
  H        21.1835464100       17.2289859100       23.2723418700
  H        20.8867811800       19.4920245000       23.1623695300
  H        19.5554161400       18.8705266300       23.3157252300
  H        22.6619837500       21.0631808700       20.7252167900
  H        21.9490742000       19.8721554200       21.1331172600
  H        19.7798970400       19.8081993800       18.9462746000
  H        18.9366795900       18.7390069200       18.1743097700
  H        22.0680534900       17.7234046700       20.9218732900
  H        21.5734513600       18.5372265200       19.7052535000
  H        19.3507473500       22.2214051100       19.4923696100
  H        20.5169401100       21.5213587400       20.3577425300
  H        21.2929054200       15.9617785500       22.3921327500
  O        21.6769553100       16.8647178500       22.4833773300
  O        20.4444578000       18.7629317900       23.5953177600
  O        21.9171832700       20.8645983500       21.2787716100
  O        19.7923743700       18.8923988400       18.6413059100
  O        22.3548203500       18.2911600700       20.1574035800
  O        19.6217641600       21.3647131000       19.9840869500
      18
 i =        1, time =        0.000, E =      -103.2928824491
  H        19.7039195200       17.5667613900       22.1096306200
  H        21.3786742100       20.3014596200       23.5276121200
  H        22.5030816000       19.9023973200       22.6745692000
  H        23.4025679300       20.6548140600       20.4964064500
  H        22.3539581900       19.4826978600       20.0473902300
  H        19.1350197600       19.5110845600       17.7043781500
  H        18.3602244900       18.8131247100       18.8392239700
  H        21.5705235900       17.4441774000       20.3200122700
  H        20.8858359100       18.3079291200       19.1852611400
  H        20.5557405200       20.8183840400       21.4368015100
  H        19.3879493900       20.0520278900       20.8600426100
  H        20.9972328400       18.1047776300       22.7396493300
  O        20.6834341600       17.3109874200       22.1843496200
  O        22.0647878900       19.6094294500       23.5154593600
  O        22.5592843300       20.2364765500       20.7067626700
  O        19.1083279600       19.4772488100       18.7115472700
  O        21.7190351500       17.8927935300       19.4485076100
  O        19.6424910400       20.5186004600       21.6780813300
      18
 i =        1, time =        0.000, E =      -103.2917548001
  H        21.2764611300       17.5644493200       21.9281127100
  H        21.0542398800       19.3980381100       23.7552122100
  H        21.7344499600       19.6692583800       22.3887722300
  H        21.6446656200       20.9626920700       20.7999343200
  H        22.6401544400       19.9752071500       20.3083472400
  H        19.3112524800       19.6525632500       20.3128063400
  H        18.8071965400       18.8760152600       18.9749734500
  H        22.4077228100       17.9584707800       19.7632371500
  H        21.3492095500       18.8766196000       19.0882914600
  H        18.1984513600       21.0487297900       22.0205245000
  H        19.6183122800       20.3126719600       22.1124020900
  H        20.8016757000       16.2201803800       21.7502948800
  O        21.5978906900       16.7295658500       21.5317516400
  O        20.8860002600       19.2097349400       22.8225863200
  O        22.5263883000       20.5143223500       21.1252170200
  O        19.5315715300       18.8772225600       19.7389805000
  O        22.3226446200       18.8220937600       19.3120520200
  O        19.0004995800       20.9206171100       21.5086058700
      18
 i =        1, time =        0.000, E =      -103.2882008121
  H        20.6985437000       16.3146973500       21.4772305500
  H        20.6486395200       18.5207299400       22.7096315600
  H        21.3706588700       19.8708816400       22.4733240700
  H        22.1677693000       21.2680070700       20.5022852300
  H        22.6687438100       19.7757424700       20.5104569400
  H        19.1357782700       19.1071582600       19.5497521300
  H        20.6243695500       19.5207096000       19.9982500400
  H        23.9851156900       17.5536707700       19.9639936900
  H        22.6655035700       18.1132437900       20.4394582600
  H        19.3948804000       21.0908542900       21.0912005600
  H        18.7819233800       20.3272789500       22.1912995600
  H        20.4942258300       17.6384030300       20.6497379300
  O        20.9466599000       17.2194987600       21.3867946200
  O        20.6626657200       19.4481233700       22.9991609600
  O        21.9108688900       20.3663771000       20.8384580400
  O        20.1137008000       18.8237907200       19.4762465900
  O        23.4952464200       18.3907759800       19.9991168600
  O        18.4969196400       20.9140479000       21.4431389400
      18
 i =        1, time =        0.000, E =      -103.2934017260
  H        21.1356357500       15.2670712600       21.5966462200
  H        20.1072989600       18.7672823900       23.1281150700
  H        21.1596075400       19.8474636000       22.7747928500
  H        22.9434851700       21.0727304900       21.9141151700
  H        22.7323655300       20.1615036800       20.7696117100
  H        19.6242907200       19.3957475700       19.9353561100
  H        20.3804507100       18.0178449100       20.1895275200
  H        21.5640891600       19.1328417300       19.2643936500
  H        22.5891498600       19.9576729700       18.3510801500
  H        19.1562904100       21.6850565500       21.1637921800
  H        19.3192447400       20.4365547600       22.0016761000
  H        22.2870559800       16.0368438600       20.8949582500
  O        21.3940659100       16.1660824200       21.3376800400
  O        20.4132283600       19.6437539800       23.4098193700
  O        22.2816108300       20.4780888100       21.5924696000
  O        20.1332406100       18.6382066000       19.4755030000
  O        22.4889055000       19.4518514400       19.1640557500
  O        18.8921515200       20.7419620100       21.1364575500
      18
 i =        1, time =        0.000, E =      -103.2838956490
  H        19.2413200600       16.0625052300       21.5758346000
  H        23.0673250500       20.2660233400       24.1085238500
  H        22.6776255200       20.3183690200       22.6158859200
  H        23.6924406800       21.0095266000       20.1880104000
  H        22.6420249700       19.8734082200       20.2894190600
  H        19.1444028600       19.1886928600       20.1685198600
  H        18.0046020000       18.3477094300       19.5446109100
  H        21.6535985800       17.9867578800       20.0750063100
  H        20.9159739000       18.6319654300       18.9954409000
  H        19.3722808900       21.5193991400       20.7577938700
  H        20.5195763700       20.6962448400       21.4038118500
  H        19.6705388100       17.2227974800       20.8113495200
  O        19.9809534000       16.7327614700       21.6182763000
  O        22.2457012900       20.1502159900       23.5292548100
  O        23.1683444500       20.5054935700       20.8388129700
  O        18.9649775200       18.3463415300       19.6506616500
  O        21.7973767700       18.6769369800       19.4191271100
  O        19.5968858000       20.6234689300       21.1511992400
      18
 i =        1, time =        0.000, E =      -103.2938558564
  H        21.1190631100       17.5469179000       22.3968913400
  H        20.5782921800       19.8059351200       23.1328538900
  H        20.9934995600       19.3275085200       24.5456357100
  H        22.2504003100       20.8866312300       21.7629164100
  H        22.4449422800       20.5736717200       20.1781920400
  H        19.3065887700       19.0114720700       19.9862452100
  H        19.9950931400       17.5942318700       19.8656396300
  H        22.6213629300       19.2164292400       18.2865421600
  H        21.2622601700       18.7657651500       19.0256569300
  H        20.6299293300       20.7812267000       21.1575933400
  H        18.9977991800       21.0550374300       21.2369235300
  H        20.9390744700       16.0765684400       21.7719357400
  O        20.9502818700       17.0150780200       21.5778157100
  O        21.0811525400       19.0487093200       23.5949635200
  O        22.1663158900       21.2320006300       20.8629486600
  O        19.5538580600       18.3477801000       19.2789603300
  O        22.2613107800       19.0413328800       19.1923564700
  O        19.7075124300       20.3806856500       21.5230687200
      18
 i =        1, time =        0.000, E =      -103.2862978466
  H        21.6309534100       17.2772631600       22.7614619900
  H        19.2610639300       19.6878485100       23.4448006800
  H        20.4514614400       20.1098003100       22.5222716300
  H        22.4456112600       21.3568370200       21.2378592200
  H        22.2406250600       19.9076329500       20.8511072300
  H        19.3089748500       19.2065193400       19.5824301200
  H        19.9773696900       18.5987899800       20.9084293800
  H        22.8344144100       17.6907663100       20.1828522800
  H        21.7203861200       18.2799368400       19.3837322800
  H        19.8561354000       20.8387395400       20.5694870800
  H        19.2283234000       21.5991260200       19.3745219000
  H        22.7515547000       16.3422711100       22.4412091800
  O        22.5304578900       17.2688717300       22.3506366900
  O        19.8781650400       19.3506524100       22.8039506400
  O        21.7227203800       20.6959634100       21.3495616700
  O        19.8516178100       18.4368867500       19.9515679000
  O        22.6843154200       18.4523673000       19.5394576000
  O        19.0173330000       20.8448334700       20.0404116200
      18
 i =        1, time =        0.000, E =      -103.2899091849
  H        21.2965667100       16.7391359000       21.8816504300
  H        20.7838035500       19.5170350900       24.0378919200
  H        21.6023318500       19.9510187300       22.7766913800
  H        23.7082693900       20.8210146100       21.7933956000
  H        22.8412800800       19.9216174800       20.8451981300
  H        19.0401491700       19.2774873400       19.4021094500
  H        20.0037281400       18.0350219900       19.4322316500
  H        22.2787186200       17.7591371000       20.0699237600
  H        23.1104366500       18.5157529400       19.0175411600
  H        18.2212943000       21.0908319300       21.2477863900
  H        19.4057764300       20.2427962200       21.6616898600
  H        20.4691715800       18.0446640700       22.1606935500
  O        20.8051375900       17.4494173500       21.3885869400
  O        20.6614273700       19.7639216000       23.1066399100
  O        22.7900814700       20.4697062000       21.7116124700
  O        19.4552491700       18.6067895300       18.8605714900
  O        23.0897529300       18.3972977100       19.9920527000
  O        18.8165137300       20.4241876400       20.9089200600
      18
 i =        1, time =        0.000, E =      -103.2924853009
  H        21.1716965600       17.7804900000       22.0080121500
  H        20.9897926400       18.7876264200       24.0946364900
  H        21.5852681300       19.8421185600       23.1226822900
  H        23.2243394100       21.2174490400       21.9099896000
  H        22.5029224500       20.2853078800       20.9437018900
  H        19.0877295900       19.3218649800       19.7888303000
  H        18.8728978200       17.9491087700       19.0276548600
  H        22.1557827700       17.9718240300       20.3809595200
  H        21.6856935200       18.8109911800       19.1952922700
  H        20.5960811900       21.3263270800       19.9964444800
  H        19.1436431200       21.5744703900       19.7790003900
  H        20.0297322800       17.3022564100       21.0859419600
  O        20.9172033500       16.9576514500       21.4206521300
  O        21.7321092200       18.9386271200       23.5273019600
  O        22.3124262000       20.9264357200       21.6548137500
  O        18.7018406400       18.3836951700       19.8819189500
  O        22.2572459300       18.9095559600       20.0107187800
  O        19.8054483300       20.8533235000       19.6615902000
      18
 i =        1, time =        0.000, E =      -103.2820116159
  H        21.6734529200       16.1643132600       19.8078900600
  H        21.5092594900       18.4498641200       22.6172106800
  H        20.0748670600       18.0597511100       22.8473638700
  H        22.2162511100       22.5765287000       21.3396657700
  H        22.1754403200       21.1202929300       20.8158415900
  H        19.1883980400       19.5389558400       20.2648229900
  H        18.9454493100       18.4548731800       19.0902033600
  H        22.5233100700       18.1958543800       20.4834931300
  H        21.1820920800       18.8921411700       20.3744301200
  H        20.1290958000       21.3690407900       21.1430441300
  H        18.4973732600       21.5746476400       21.0629890400
  H        23.0921211200       15.6839543000       20.4774017900
  O        22.2041174400       16.1306578200       20.6337515100
  O        20.8720675200       18.3306984200       23.3403386000
  O        21.7476211500       22.0510120700       20.6689920300
  O        19.4956021800       18.6472060800       19.8275192600
  O        22.1406353200       19.0338297700       20.7323645600
  O        19.2560529700       20.9075388800       21.0175875400
      18
 i =        1, time =        0.000, E =      -103.3010065418
  H        20.8916517200       17.3931108100       22.2650153300
  H        21.0666667800       19.5218299300       24.0747451500
  H        22.0130834200       19.6402958000       22.8113784600
  H        23.2566219200       21.1684569200       21.2503023200
  H        22.5427664600       20.1030503200       20.4972929000
  H        19.5384217600       19.4145737600       20.0440262900
  H        19.7421604400       17.8816624400       20.3600721100
  H        22.9304157200       18.3786806300       18.8200535000
  H        21.5211953300       18.8306583600       19.0811828200
  H        20.0702755100       21.5239361400       20.8435221300
  H        18.7311543000       21.0567833200       21.4669537500
  H        19.7124749100       16.3871491900       22.5080585400
  O        20.4117858300       16.6528064100       21.8438380800
  O        21.5021329500       18.9696963900       23.3996053800
  O        22.3755087200       20.7418786500       21.3108271400
  O        19.7040412500       18.5506697700       19.6135236400
  O        22.4358093600       19.1061640000       19.1698381800
  O        19.2357992800       21.0028648900       20.6499169700
      18
 i =        1, time =        0.000, E =      -103.3041648271
  H        21.2723329900       17.4417102700       21.7404958300
  H        20.5784299800       19.3340691800       22.3295528300
  H        21.7742268800       19.8006391100       23.0226208500
  H        22.4592342500       21.6923309100       21.1143937300
  H        22.3589394900       20.1218216200       20.7660021800
  H        19.0762533900       19.3535586800       20.0996674600
  H        18.4458596800       18.1281045000       19.2341156200
  H        22.4408566700       18.0225853200       20.2595822200
  H        23.7576678300       18.6236955900       20.4830003300
  H        18.7503309400       21.3729113200       21.2471123800
  H        20.3012795100       21.1373364000       21.0440475700
  H        20.4722206100       17.1751808100       20.5079890100
  O        21.2651142600       16.8612561000       20.9593035700
  O        21.1473991100       19.0843687500       23.0868750000
  O        22.0113734800       20.8720184200       21.3724052900
  O        18.9572512100       18.3171964600       20.0730120400
  O        22.9339105700       18.8756632800       19.9957855100
  O        19.3707732100       20.9566369100       20.6371400100
      18
 i =        1, time =        0.000, E =      -103.3029087909
  H        21.5169167700       17.6049640400       22.1389928800
  H        21.4840931600       19.1129405300       23.9711089900
  H        21.3020386500       19.9067408000       22.6738505000
  H        21.9216768200       21.6674531100       21.3652747800
  H        21.9243969300       20.1609699900       20.7200756900
  H        19.4928455000       19.1683462600       19.8272198400
  H        19.5431538400       17.9495197900       18.7100529300
  H        22.4282458800       18.2415971300       20.3861481100
  H        23.1759497900       19.2873466500       19.2679070700
  H        18.4698934500       20.0036421400       21.6991542900
  H        19.6227936300       20.6659676500       21.1344616700
  H        20.8807362600       17.4359172600       20.7144614600
  O        21.6876351500       17.1198604800       21.3026162000
  O        20.9875368100       19.0807111500       23.1250380400
  O        21.3296040100       20.9532772500       21.0647374000
  O        19.9794146700       18.3646174200       19.4780049300
  O        22.9917641700       19.1472234900       20.2398517200
  O        18.7051348900       20.3643619700       20.8663820400
      18
 i =        1, time =        0.000, E =      -103.3018791443
  H        21.2741491400       17.7673685700       22.1944543800
  H        20.1775971900       19.5186689400       23.4832838700
  H        21.2055442500       20.1462269900       22.4770106700
  H        22.2452340000       21.3792775600       20.5631426200
  H        21.9140174800       19.8454276700       20.4829826900
  H        18.9474211000       19.1181098700       20.2402810100
  H        18.5918653800       17.7662277600       20.8767223700
  H        22.7259033200       18.1825496000       20.6304137900
  H        23.2792401400       18.3191280700       19.1619780700
  H        20.0287407100       21.0121399000       20.5658869000
  H        18.4816540500       21.3282268500       20.9895232300
  H        21.0127387600       17.1836193600       20.7993868500
  O        21.6679936700       17.1626492200       21.5218105700
  O        21.0853864100       19.4114320400       23.1409675500
  O        21.5447478500       20.6994908900       20.7827819000
  O        19.1645054200       18.1427312500       20.1973426400
  O        23.2571123900       18.8015300500       20.0359363000
  O        19.0797053600       20.7894382500       20.4068413900
      18
 i =        1, time =        0.000, E =      -103.2961096396
  H        21.3857796300       18.0264381600       21.9314504700
  H        21.0954669900       19.8775235300       23.9708092700
  H        21.6830196800       20.3207811600       22.4681699800
  H        23.2883683200       21.2753968000       20.9904851300
  H        22.4459766900       20.1440487600       20.2533338000
  H        19.2749088700       19.0379093300       20.5026669600
  H        18.7789804600       18.6684075000       19.0226031000
  H        22.4514524000       17.6332418900       20.0802134700
  H        21.4870446800       18.4555590600       19.2628442900
  H        18.8797327600       21.4028002000       21.4501409300
  H        19.5931388600       20.2033477400       22.2143199300
  H        20.4717793000       16.8478827800       21.4113281100
  O        21.4169054500       17.0763399600       21.6086347700
  O        21.0966982100       19.7924321700       23.0090458600
  O        22.3737596200       20.9278440300       20.8873498000
  O        19.5303239000       18.5140287400       19.6702944600
  O        22.4581110100       18.2183549400       19.3089967100
  O        18.8637019400       20.4577095200       21.5324765800
      18
 i =        1, time =        0.000, E =      -103.2925920479
  H        21.3534344000       17.8433287600       22.0502959100
  H        21.7470854300       19.4546506000       24.3855203000
  H        22.0450706800       20.3416004700       23.1189585500
  H        21.2537593200       21.5684157100       20.1094255300
  H        21.8412753400       20.3785560500       20.7638093600
  H        19.9450670800       17.7292421000       18.5436089800
  H        19.4924867100       18.6955365200       19.6749841500
  H        22.3149935500       18.2948318400       20.3542943100
  H        23.5405695200       19.2742607900       20.1849610900
  H        19.1464489100       20.8543102800       21.5254553600
  H        17.8874656100       19.9462547700       21.5175952900
  H        20.6208198100       17.0983960200       20.9121725400
  O        21.4964277500       17.1496010000       21.3646943400
  O        21.9697164200       19.4281122400       23.4203822800
  O        21.4542285600       21.2982216900       21.0060060500
  O        19.5964723600       17.7441325600       19.4859308400
  O        22.6509000800       19.0940219200       19.8540389200
  O        18.5495254500       20.2987006100       20.9120363000
      18
 i =        1, time =        0.000, E =      -103.3019894127
  H        21.9114519800       17.6389940900       22.1175755200
  H        20.1416159000       18.2819287200       22.7657010000