      48
 i =        1, time =        0.000, E =      -275.4847901054
  H        16.1211357500       18.5643209200       19.5496932200
  H        19.6425315000       19.7393971300       17.6508667500
  H        19.4435765000       19.7112977200       16.1135558000
  H        20.3336219400       16.4395053800       21.6735489600
  H        20.0972453200       17.0755437300       20.2560200300
  H        17.7203024300       24.4050294300       23.2872554000
  H        18.8711011500       23.5015759300       22.6782418000
  H        18.1267972100       17.3367892700       19.3085987300
  H        18.6921543800       16.7591512900       17.9783128100
  H        21.2303469600       23.7908529400       22.2055939700
  H        21.0593879900       22.6156600500       23.1655407400
  H        16.3688264500       18.1474949900       23.4111121000
  H        16.8224797600       18.2335562900       21.9371514700
  H        16.4439892000       17.7023693600       15.9617368600
  H        17.2065092100       18.5178206500       17.0239822600
  H        19.8064634600       20.9258882700       19.2631940600
  H        21.0759933700       20.1604208900       19.0995195900
  H        19.8343301200       18.5221732300       22.1859535200
  H        18.5797692000       18.7566548900       23.0216405100
  H        16.3086410400       20.3084054500       24.7655104700
  H        15.1291098400       19.2549637900       24.9990925700
  H        22.1398941900       22.0161462600       18.7020859700
  H        21.7237351000       23.4466974400       18.9493077900
  H        18.1683630700       21.5098455300       20.9253141600
  H        18.7941596200       20.1435947600       21.4635985800
  H        21.7001409700       18.6394209600       20.7329539400
  H        22.5539529000       19.9352199200       21.0008063100
  H        17.7654068100       21.7944361900       24.0901989500
  H        18.4281831700       20.5901381100       23.5431966600
  H        22.1904539800       21.0473378100       24.7390154400
  H        21.2776568400       20.2464282100       23.7608887000
  H        17.4143719100       19.2067434000       20.0852566900
  O        16.9350354500       18.3315910200       20.0491094700
  O        19.2788882900       19.1636771500       16.9186372800
  O        20.4324082500       17.2516077700       21.2068003900
  O        17.8736863400       23.4799608000       22.9071506900
  O        18.8915887900       16.8249210500       18.9410545600
  O        20.5839183700       23.1416521700       22.5092783100
  O        17.0958940800       17.8437478200       22.8447438200
  O        16.2255584500       18.3828231200       16.6256396300
  O        20.5435478400       20.8295764800       18.5845931200
  O        19.4260500800       19.2626492600       22.6859461300
  O        15.7703984600       19.5866761800       24.3178369200
  O        22.5295970700       22.9109307300       18.8810596600
  O        18.3194260900       20.6081559300       20.6960511900
  O        22.1726718500       19.3907590400       20.3129191700
  O        17.9135835500       20.8827512100       24.3347962800
  O        21.9728792600       20.9569661000       23.7763815500
      48
 i =        1, time =        0.000, E =      -275.4951420666
  H        15.8394651900       19.3902138700       19.6703720700
  H        20.0572026300       20.2551957800       17.4130071100
  H        19.8100645300       20.7348376800       16.0171525800
  H        17.9895685000       16.4200656300       21.2173633100
  H        18.4651960300       16.6802038100       19.7681049600
  H        20.2106685100       23.9845705500       24.7396362100
  H        20.0599647700       23.5674726000       23.2625138200
  H        17.3258114900       18.2555441200       18.6790112000
  H        18.0347510200       18.0134739100       17.3379208700
  H        21.9770174100       22.4031634100       21.5302867400
  H        21.7495325000       21.7421309700       23.0018991400
  H        16.1722094700       19.1295919200       23.4852993800
  H        16.4673372600       18.6187084200       22.0493544000
  H        14.3425161100       19.0817304200       17.3187150900
  H        15.7820494100       18.3442325400       17.5787085400
  H        20.7798325200       20.6191549800       19.5199757000
  H        21.9564894500       19.8957683200       18.6795965300
  H        19.4423345200       17.7193416500       21.9918691400
  H        18.5664977800       18.4161729800       23.1243420400
  H        16.7263091800       20.7124279400       24.3490580800
  H        15.4241271800       20.3936068900       25.0726668100
  H        22.5173561100       22.1238391400       19.2924653400
  H        22.8255800200       23.6136059300       19.6873187400
  H        19.3547562500       21.1815344200       21.2299948600
  H        19.2322616900       19.6924350000       21.3128236200
  H        21.6913243900       17.6539584800       18.0402164600
  H        23.0788110300       17.6695126000       18.5742226400
  H        18.5117020000       22.0370813900       24.6326601400
  H        19.4159767800       20.7767642500       24.4516336900
  H        21.8492987000       19.3513744700       24.2572899800
  H        20.5499513000       19.6141112500       23.3352826300
  H        17.0960421400       19.8676053400       20.1584313000
  O        16.6112506300       19.0468655800       20.1440558900
  O        19.4062165300       20.0546303000       16.6083626400
  O        18.8176370400       16.4783543000       20.6607134200
  O        19.4758651400       23.8227672100       24.0629870800
  O        17.5135420000       17.5370245400       18.0581689000
  O        21.4082327900       22.3760332500       22.3184037000
  O        16.6886311700       18.4049843700       23.0022614100
  O        15.2081463900       19.1384590500       17.7743430500
  O        21.3215599300       20.6700237100       18.6733027800
  O        19.5077966900       18.3850832100       22.7564028100
  O        15.7765690100       20.4393974900       24.1627337900
  O        22.8157829700       22.7295404300       20.0563758800
  O        19.1569919500       20.3837470500       20.6791947200
  O        22.3717855400       18.2911854100       18.3024400300
  O        18.4796513100       21.0593588600       24.6633754000
  O        21.2648877200       20.0993786400       23.8421092800
      48
 i =        1, time =        0.000, E =      -275.4826799330
  H        16.4004431800       20.4508713500       20.1367881200
  H        19.8566992500       20.9571331000       17.1623717100
  H        19.0539529300       22.0640810100       16.2143625300
  H        19.7067735300       15.7617000900       19.8702698900
  H        19.1692443000       17.0224709500       19.0192253600
  H        18.8382075100       23.9855245800       24.9044143300
  H        19.4914499000       23.2497524900       23.6279946200
  H        16.5742923800       17.4304129100       18.9622128600
  H        17.3297643800       18.4570135900       17.9818958800
  H        21.5557127500       22.7343911600       22.2551533100
  H        21.1693993900       21.6714426000       23.3421476200
  H        16.8114962100       17.8191508200       23.5432743400
  H        16.9054620000       18.3467290100       22.1999522500
  H        16.4754397800       19.3048819000       15.7530584900
  H        17.3736000500       20.1799249800       16.5035521000
  H        20.4324698800       20.4177892000       19.4325638800
  H        21.5707280200       19.8381280000       18.4873210100
  H        19.8252947000       17.5540547500       21.7079392200
  H        19.4347618700       17.9102746200       23.1848770800
  H        16.1320401100       19.2377294700       25.1804655900
  H        15.1827931500       19.3243168500       24.0715680200
  H        23.2250139900       21.8295763400       20.4542945000
  H        22.1515011800       22.1589026700       19.5286611700
  H        19.6988998400       21.4005541700       21.4133080000
  H        19.5079776200       19.8194607900       21.4385885700
  H        21.6161360200       17.7349714800       18.9702693800
  H        21.3668232700       18.0509683400       17.4695438700
  H        18.0028243300       21.7605262000       24.3410081300
  H        17.1364099500       20.7536866800       23.5515497700
  H        21.4212902200       19.7113447400       24.9131350100
  H        21.0108081900       19.3374760600       23.5017191800
  H        17.6192427800       20.4145872300       20.9197175100
  O        16.6198392400       20.2164979500       21.0218292100
  O        19.0731632400       21.1301156000       16.5402723000
  O        19.8915363200       16.7308821700       19.6711581800
  O        18.6077134000       23.4445957100       24.1253614400
  O        17.4313634600       17.6886402600       18.5924043400
  O        20.7683431100       22.4922080800       22.8129546800
  O        17.4298845000       17.7781920900       22.7980160100
  O        16.5461456000       19.6728702300       16.6322157700
  O        21.0426014900       20.6950293900       18.6291146900
  O        20.0205564300       18.2612473900       22.3782033100
  O        15.4139568700       18.7059301700       24.8269556900
  O        22.5217669000       22.4783496800       20.3888392900
  O        19.4057325600       20.6549866400       20.8446297200
  O        22.1251722100       18.1544873900       18.1105157100
  O        17.5746004300       20.8092806100       24.4231734300
  O        21.4312443700       20.0835100200       24.0159572600
      48
 i =        1, time =        0.000, E =      -275.5133706505
  H        15.9216215800       20.0455267200       21.4354653700
  H        19.7522385400       20.7458374400       18.0041867700
  H        19.2435546300       20.6992622600       16.5480511300
  H        20.7426843500       16.8278048600       19.3935674900
  H        19.5422881100       17.8306215100       18.9564871100
  H        17.9847179400       23.6950466500       22.7031289400
  H        19.2514455000       22.6259518700       22.9771491400
  H        17.4160783700       17.9145267600       17.9468848100
  H        18.9000187700       18.5113326700       17.5078117800
  H        21.5749010300       22.2825631600       22.1825361700
  H        21.1205684400       21.8027168100       23.5748950500
  H        16.6874950700       18.3985802400       23.4529809700
  H        16.5127355100       18.0148957200       21.9302494900
  H        15.2966237300       19.1382778800       17.5853054600
  H        15.6229470900       18.8003001200       19.0168407400
  H        20.5196010600       21.2892942300       19.9574613400
  H        21.7625320100       21.3420478600       18.9543422500
  H        19.9024907500       18.4309259800       21.2256711700
  H        18.7711110700       18.3907502400       22.4100343600
  H        16.2495114500       19.8416484800       24.8403135900
  H        14.9993212200       18.9988866700       25.1023932300
  H        24.3307730500       21.5175824500       19.4940277700
  H        23.4141117000       20.3850812500       19.7130125000
  H        18.2882518600       21.4841427300       21.2571937100
  H        18.8971171800       20.0791214600       21.1249811700
  H        21.8847101000       18.6201545400       19.1103945200
  H        22.0205976000       19.1262383500       17.6463394400
  H        17.7794221900       21.5831086000       24.1165752800
  H        18.7370901300       20.4666639400       24.7504875900
  H        21.0512490700       19.3737064300       24.8298921300
  H        20.6427793900       19.5111592500       23.3475992200
  H        16.9150246500       20.1051867800       20.2515804400
  O        16.1271359100       19.6280104300       20.5692125800
  O        19.5533209600       20.0904883800       17.2430153700
  O        20.4223639700       17.7473252600       19.5778817300
  O        18.2468097000       22.7400358400       22.7819245700
  O        18.4058532600       17.8290175200       18.0388922300
  O        21.0789371400       22.6144213900       22.9917042100
  O        17.2000962500       18.0098346500       22.6389896700
  O        15.6623713400       18.4097238100       18.1291667800
  O        20.8163521100       21.5529965300       19.0528322800
  O        19.5759626700       18.8988763400       22.0339940700
  O        15.5540871000       19.3211050900       24.3594457800
  O        23.6791967400       21.2417525000       20.1731013900
  O        18.5245196300       20.8730457200       20.6020304400
  O        22.4919552600       19.1015951300       18.5154860300
  O        17.8161343000       20.7776213800       24.7942370700
  O        20.7681394100       20.0860544100       24.2274895700
      48
 i =        1, time =        0.000, E =      -275.5064144451
  H        16.3523523400       20.0068123500       19.4777941100
  H        20.4025014200       19.4924689100       17.3005525100
  H        19.9463982600       18.6423779500       16.0587019900
  H        20.6724991700       16.1671639300       20.4240553100
  H        19.9327004200       17.2345128300       19.5472607600
  H        17.8728150600       23.6950702700       22.1484455900
  H        19.2554426800       23.4182862700       22.6709105500
  H        18.0847776500       18.2169769300       19.1996391600
  H        18.8955055600       17.7846467700       17.9967174500
  H        21.3576898600       22.8526650900       21.2440818400
  H        20.9347441200       21.7384085100       22.6852187500
  H        16.3959806400       18.0257888000       22.8211352800
  H        16.8346180100       18.6140835100       21.3968960700
  H        15.9735765800       17.4829194300       19.6973635500
  H        15.5356960200       16.8911163600       18.4177413300
  H        20.2847594000       21.0299131900       19.1104979400
  H        21.6409806800       20.3280031100       18.9549679700
  H        19.9684104200       18.1760191700       22.0121233000
  H        18.5174734600       18.5322222200       22.6417831200
  H        16.1916352400       20.1359146900       23.7946821900
  H        14.6981114700       19.9759831900       24.1478002400
  H        22.0312116200       22.3099612300       19.4548119600
  H        22.6009758600       23.7649726200       19.5515435800
  H        19.7041152500       21.7533387900       21.1798917300
  H        19.2176388100       20.2887600100       21.4567329700
  H        21.8528932400       18.2499420700       19.7657280300
  H        22.8197510900       19.2873307200       20.4717311400
  H        17.8313356500       22.3565351300       23.7142560400
  H        17.7826529200       21.3035182300       24.9521430600
  H        19.7032184200       20.9123681000       24.1497507800
  H        20.4587086700       19.7405616400       23.5308928000
  H        17.7605745000       20.2478784000       20.0767586700
  O        17.0325116700       19.5567029800       20.0175607600
  O        19.6841695800       18.9701848600       16.8900809500
  O        20.7372263400       17.1533712400       20.2057239800
  O        18.3607037500       23.6428395000       22.9666273300
  O        18.5500684200       17.4113867100       18.9035380700
  O        20.7163413400       22.4610763900       21.9365623500
  O        17.0922200700       17.9412657100       22.1163590600
  O        15.0629700800       17.2186849300       19.2867215700
  O        21.1564997500       21.1305846900       18.5661645400
  O        19.5056686300       18.8665034400       22.5210462900
  O        15.5399344600       19.4955987500       24.0617282100
  O        22.4610977000       22.9526169100       20.0891863500
  O        19.0590301200       21.0391015000       20.7544317800
  O        22.5401243200       19.0084172600       19.5477432800
  O        17.7942745300       21.4018742600       23.9961081600
  O        20.6444996100       20.6227049000       23.9514257100
      48
 i =        1, time =        0.000, E =      -275.4807284980
  H        15.3778091100       20.7877221400       19.3719623500
  H        20.3255614000       20.3481253200       16.9661294800
  H        19.1290490100       20.2262761600       15.7944976300
  H        19.9175028000       16.1016650400       20.1775351800
  H        19.1738508800       17.4081172800       19.3757505200
  H        20.5238982100       25.1908804800       24.6346663000
  H        20.0879474500       23.9220905200       23.9033447000
  H        17.2173225600       18.5929452600       18.6719380100
  H        18.4846174100       18.5356832200       17.7807668600
  H        21.1739306500       22.7971421800       21.8178337900
  H        20.8804446400       21.7874414200       22.8965145100
  H        16.2855342100       18.1441000100       23.5023839000
  H        15.7752605400       17.6599576100       22.0998436500
  H        16.3611324400       19.1610087400       16.3072441200
  H        15.4469815800       19.4946123100       17.6480634200
  H        20.4635163900       20.5600111100       18.9436928500
  H        21.6761765600       19.7261893500       18.5276079100
  H        19.6130667500       17.9484254900       21.6015074900
  H        18.4473216800       17.9979665900       22.6735766700
  H        17.1268281000       19.8371804000       24.9392639200
  H        15.8858186300       19.2885967000       25.6741703900
  H        22.0355379300       21.5728405400       19.6736640100
  H        22.9954910500       21.1828467900       20.8272612600
  H        19.3914237300       21.5524381000       21.0026944800
  H        19.0187389500       19.9843410000       21.1746655100
  H        21.5967426200       17.5074544200       19.3225395000
  H        22.1492181600       17.9604656100       17.7707793300
  H        18.4958419400       21.9301134600       25.1451045000
  H        19.2891381700       20.6829553800       25.0831138100
  H        21.1091863600       19.3638405300       24.6369283900
  H        20.1113518900       19.2650854700       23.4845541300
  H        16.9632245700       20.6012845700       19.5371191300
  O        16.0764928900       20.1336704700       19.3716320200
  O        19.5876448700       19.7491232300       16.5854444000
  O        19.9401202800       17.0861317500       19.9708268700
  O        20.3427951300       24.2484753300       24.8154026400
  O        17.9587158000       18.0044495600       18.3975967800
  O        20.4414685300       22.5224106200       22.3689989700
  O        16.5413172600       17.5529640500       22.7363884000
  O        15.4820841100       19.5310379500       16.7037954700
  O        21.2586786300       20.7094008600       18.3560074800
  O        19.3841736100       18.2262384000       22.4839925600
  O        16.2132390300       19.4904666000       24.7788170700
  O        22.5304809400       21.9654349500       20.4257222600
  O        19.0082211100       20.7536914600       20.5472019800
  O        22.2177289600       18.0668441500       18.7673489400
  O        18.4057812900       21.0282011100       25.3321344600
  O        20.4842774100       19.9011927600       24.1121056800
      48
 i =        1, time =        0.000, E =      -275.4541509334
  H        16.9133704500       20.3496611900       20.0904612200
  H        19.9463553100       20.8233623000       17.3663416500
  H        19.3939065200       20.3940257500       15.9371226400
  H        19.6315024400       18.3347407400       21.1317503800
  H        19.3207616500       17.0089272400       20.2539721400
  H        19.9124745700       22.8786397800       24.5649219800
  H        19.5526741600       22.4798496500       22.9902829100
  H        18.0574824300       18.3861767200       19.1934197400
  H        18.5568677700       18.9706756000       17.8032750600
  H        21.0774825000       22.7925245700       21.2350474600
  H        21.1484271600       21.4111642400       21.8754028900
  H        17.1516601700       16.5627771300       22.2996219600
  H        17.1911528900       18.0708425400       21.5358296200
  H        16.5766717500       17.7738326100       18.0678758700
  H        15.3100721300       18.3005499000       18.8955837100
  H        21.6037973800       21.6098386000       19.1736153300
  H        21.5925823400       20.1866483200       18.6508595000
  H        19.1972649600       18.7383179800       23.3424382800
  H        19.1640911700       20.0732596400       24.0641890600
  H        15.4734282200       19.4204586500       24.1087606000
  H        15.8907091800       18.1577809400       23.4331945900
  H        22.8141974500       23.4699301400       19.4224145100
  H        23.5704088100       22.7611771800       20.5762804100
  H        19.2414529000       21.6660051200       20.6323085700
  H        18.7545372200       21.5736133500       19.1003286200
  H        21.2849855400       18.0221562700       19.5317648100
  H        21.1454960500       18.0350705300       17.9942959300
  H        17.3185873400       20.8015210300       25.5661004600
  H        17.8438200800       21.5581611100       24.2563842800
  H        22.8346201400       20.2610946900       22.9008425300
  H        21.5153816000       20.3450996900       23.7116433100
  H        15.6678983700       20.1353621000       21.0950818300
  O        16.2110290200       19.6704800400       20.4368748800
  O        19.2313933500       20.3569800300       16.9115720200
  O        19.9898466300       17.4074777900       20.8409707400
  O        19.2050309900       22.5755419300       23.9389929600
  O        18.6469222300       18.2145729700       18.4195867500
  O        20.4764208800       22.0407059800       21.5155063800
  O        17.4072672100       17.5013943700       22.3334027000
  O        15.5918001000       17.7412996600       18.1712126500
  O        21.2575971400       21.0615966900       18.3962479000
  O        19.8096181600       19.3319942000       23.7465933600
  O        15.1925207100       18.5223590400       24.0415154000
  O        22.6939724200       23.1047502700       20.3386109000
  O        18.5440675800       21.2696586800       20.0318700600
  O        21.7431804400       18.3460706800       18.7407920800
  O        17.4992700100       20.6808749300       24.6238803800
  O        22.2394214100       20.8772524400       23.2762017700
      48
 i =        1, time =        0.000, E =      -275.4725673436
  H        15.9052812600       18.9863749300       19.8974771800
  H        21.6405989900       18.6605548800       16.0765107200
  H        20.5582156400       17.7638274200       15.6124082000
  H        18.6474346100       16.7996498100       21.7527411600
  H        17.6177870600       17.1341315900       20.7482650000
  H        18.0621946700       24.1437129300       22.3566494100
  H        19.3826009600       23.6010767200       22.6144996200
  H        18.7925763400       19.7176643200       18.3980148600
  H        19.0093309700       18.8498350700       17.1125425700
  H        21.4344580800       22.5075735000       21.2836164700
  H        21.2157510800       21.7415667600       22.7428872100
  H        16.8494697200       18.7167832700       23.8492682000
  H        16.7494482900       18.2555151400       22.2703564700
  H        16.6390743400       19.3432781100       17.9189421300
  H        15.0987958600       19.9403705800       18.2709047800
  H        21.2274008500       19.7921304400       19.2930723300
  H        22.6455145400       19.1423301500       19.0081923500
  H        20.3561273800       18.3076004600       22.2910316100
  H        18.9036612900       18.6949085900       22.8648396800
  H        16.6089238300       20.7906254200       24.8193485600
  H        15.0385310400       20.3606290200       24.9327355500
  H        22.1624788400       21.8876287600       19.4068443900
  H        21.3893693100       23.0386790200       18.9936505000
  H        19.7962824700       21.2376352500       20.2041981800
  H        19.5478302200       19.9088994700       20.7856621500
  H        19.9478191000       16.9876300700       19.5527645700
  H        20.3791990100       17.6051413500       18.2296015900
  H        18.2004279300       22.5695446700       24.1595414500
  H        18.5180296000       20.9091206100       24.4124880500
  H        21.8373658300       20.9225356500       25.1127747500
  H        21.2251702200       19.9285004700       24.0989275700
  H        16.9922995600       19.5002685300       20.7862514600
  O        16.1568262600       18.9474510900       20.8697178500
  O        20.6982189600       18.5100810900       16.1906262100
  O        18.5398925400       16.8501193400       20.7748232900
  O        18.6953822100       24.1346795600       23.1051177700
  O        18.3238686600       19.2655945000       17.6660649700
  O        20.7774561800       22.0829927300       21.9276608100
  O        17.2066996100       18.0414535500       23.1467102600
  O        15.6771976600       19.1433217600       18.2622337900
  O        22.1355416800       19.9247433400       18.8481536200
  O        19.7952604000       19.0412954500       22.6023231200
  O        15.9392079700       20.0122723400       24.9181268100
  O        21.9441923600       22.7675485100       19.7543243400
  O        19.5533072500       20.3637711600       19.8636118800
  O        20.7488697300       17.2929399100       19.0079815200
  O        18.1056705300       21.7076305500       24.7147580400
  O        21.5850795600       20.8444029700       24.1710977400
      48
 i =        1, time =        0.000, E =      -275.5017371026
  H        16.4543479000       19.3464958200       19.5977978200
  H        19.1522437500       19.7896360700       17.6571202900
  H        18.7554861500       19.2030271400       16.2363365900
  H        19.9330884000       15.8214069400       21.0672458300
  H        19.6491759300       16.6947891200       19.8376606600
  H        17.5530964500       24.6165346900       22.7399031500
  H        18.8414119200       23.7124305400       22.8072537800
  H        17.9217097400       17.6111731500       19.1296575200
  H        18.5576736600       17.1530356500       17.7344343200
  H        21.2604127100       23.3197199700       21.7279744700
  H        20.8865418700       22.4925105500       22.9700969000
  H        17.3660336500       18.0423121100       23.5871546600
  H        17.5319389500       17.4933310200       22.1545577400
  H        14.8311218300       20.7535169900       17.6218511800
  H        16.1153316800       20.1541312800       17.1853566500
  H        20.1573840700       20.6967829800       19.5186800600
  H        20.9965619900       19.7900493100       18.7245115300
  H        20.3736662300       17.7892122400       22.0416645000
  H        19.3592222900       17.9544586300       23.0797006300
  H        16.8571643700       19.9896434100       24.1689938900
  H        15.6796502300       19.1243294700       23.5157227500
  H        21.9212738800       22.8437272200       18.6096903300
  H        21.7399757800       24.3704679700       18.9157855600
  H        19.4589032000       21.4715102800       21.6512988900
  H        19.7048234600       19.9436489900       21.8457571400
  H        22.8026138500       18.3388163000       19.3711575200
  H        21.8706452300       17.3308010000       18.8258252000
  H        17.6548098500       22.3164764400       23.6707156700
  H        19.0036273300       21.4248224100       23.9796369700
  H        21.1533978400       20.8771410300       24.8990936100
  H        20.9333254800       20.0364806700       23.5354756200
  H        17.6406482700       19.7412860800       20.5054177100
  O        17.1321417800       18.9185346100       20.2177794700
  O        18.4805458200       19.2528554400       17.1733481200
  O        20.1717763900       16.6690944100       20.6805243100
  O        17.9502188800       23.9200443200       23.2946437200
  O        18.3889940800       16.8377960100       18.6762973500
  O        20.4586871200       23.1289433000       22.3241865900
  O        17.8758207300       17.2939466700       23.0315531700
  O        15.4174398400       20.0358512500       17.8677813500
  O        20.5699173000       20.6690387300       18.6552724100
  O        20.2788896500       18.3160000500       22.8672139800
  O        16.4450642200       19.0924229300       24.1289022900
  O        22.0349058000       23.5650137900       19.3072625600
  O        19.5206920300       20.6212981800       21.1851810000
  O        22.3465543400       18.1062334600       18.5396723200
  O        17.9811216800       21.4234726600       23.9712976400
  O        20.8464178000       20.9223692900       23.9618586600
      48
 i =        1, time =        0.000, E =      -275.4763145537
  H        16.6170879200       19.9696357500       19.5974198200
  H        18.7030788400       19.4984183800       15.1836053300
  H        19.3229358400       20.7169892400       15.7991341400
  H        19.6020591800       15.8552775200       21.1278152700
  H        19.3794083200       16.9910413200       19.9678047400
  H        19.1844541800       23.2495323200       23.1861859400
  H        18.8472571700       24.5202745700       24.1127383300
  H        18.2093071800       18.4227105500       19.1192239000
  H        19.2921342700       18.0264898800       18.1086969700
  H        21.4530208300       22.7850336200       21.9453543100
  H        21.1082783400       21.8676877400       23.2742822800
  H        16.6909991000       18.7737150800       23.4416681200
  H        17.1360497100       18.7113362300       21.8904052500
  H        15.1640772000       19.8445787700       17.0982846500
  H        16.2329429000       18.9506947200       17.7907564200
  H        20.8050510800       20.0294364400       17.3214029300
  H        21.5888802500       19.1436097500       18.4833646800
  H        20.0158711900       17.5824865000       22.2616734100