      39
 i =        1, time =        0.000, E =      -223.8456221484
  H        21.2732850100       19.8336319900       19.7261281600
  H        19.3786284100       23.4330557600       20.2485388600
  H        20.0225408100       21.9834932300       20.4169342200
  H        21.8546194400       16.5857504000       22.8570837100
  H        20.5392264100       16.9791049900       22.1559090700
  H        18.2510100300       20.6057239600       25.9329542100
  H        18.2772597300       20.8942253300       24.4187056000
  H        19.6616168700       17.8659906100       19.9757284500
  H        18.6811728600       17.5811360900       21.1219667800
  H        18.4798241500       21.3538170200       22.6470158900
  H        17.1334114100       21.7660085100       22.9978488700
  H        17.9629281900       16.8820190900       24.8883285200
  H        17.9912165200       18.6250348900       24.8936791700
  H        18.2691741900       21.4649957800       18.8687763000
  H        17.3185326000       20.7232563000       18.1256009800
  H        20.9335451100       18.7246314500       24.0230167800
  H        20.0903065800       19.9550822300       24.5073583100
  H        19.8831407700       15.9482074700       24.2243098700
  H        18.9490539800       14.8172297600       23.8478886000
  H        17.3114281000       17.5376461400       23.1838356200
  H        16.7629684000       16.5603797500       22.0161245900
  H        19.6916669100       19.7017271500       21.2017881700
  H        20.5308305100       20.2619754700       22.4814076800
  H        16.3749035700       19.2666497500       21.7266366800
  H        16.8724699700       20.3825920900       20.7357071800
  H        22.6623101300       19.7834061500       19.1627197800
  O        21.7432377600       19.4854998000       18.9226849000
  O        19.5488241300       22.5740050700       19.7936770200
  O        20.9061840500       16.7434695700       23.1261259400
  O        18.5639583000       20.1948728500       25.1186661600
  O        19.6217460300       17.5721653300       20.8752892600
  O        18.0018722100       21.8679084700       23.3585015600
  O        17.5021400000       17.7735463000       24.7036452900
  O        17.7919787500       20.5704174600       18.9369666000
  O        20.8257246800       19.6735585200       23.9365219000
  O        19.0780567500       15.4604319800       24.5741534400
  O        17.1870991800       17.4462465200       22.1246838600
  O        20.0976519800       20.4961343200       21.6007091200
  O        16.2595107000       20.2090881000       21.4717296800
      39
 i =        1, time =        0.000, E =      -223.8266391336
  H        19.3045682000       17.8457598700       17.1225757100
  H        20.3994026900       22.1147083400       21.7129480300
  H        20.8704835400       22.9704014000       20.5957898500
  H        22.1512775800       16.9949291500       22.4207423200
  H        20.8002298100       17.5368282500       21.9283797400
  H        19.1847177300       18.6782556000       24.9837850600
  H        18.4783618700       20.1563788000       24.5944351700
  H        19.5334774500       17.7627811500       19.8554867400
  H        18.5976319700       17.6898742600       21.0982304200
  H        18.6139946400       21.1706349100       23.2440669000
  H        17.4548257000       20.6208466100       22.3154666600
  H        16.5986557300       18.0291499600       24.7325750900
  H        17.4989633800       16.9472083000       24.1547791200
  H        19.7014024500       21.1894798200       19.2638460000
  H        19.3183754700       21.3022632600       17.8470825700
  H        21.6265607500       18.9898638700       23.8739385800
  H        20.5921442400       19.7596078000       24.8701209900
  H        19.5045759800       16.1934386900       24.9117791400
  H        20.0325858400       16.9662077600       23.5723144200
  H        16.0316035500       17.1131407400       22.5567797100
  H        15.9363161000       16.8751456100       20.8424434300
  H        21.2166196800       21.0377141800       23.7438291000
  H        20.5016970200       22.4047794500       24.0243440400
  H        16.4820167800       19.0496386500       21.2947546900
  H        17.1292884900       20.0187845100       20.1860362900
  H        19.1526336500       19.0843631400       18.0808920300
  O        19.0492761900       18.0777536800       18.0790328400
  O        20.0506767500       22.5239541500       20.8766799800
  O        21.3708316800       17.5539580600       22.7219343900
  O        19.1046081000       19.6394262000       25.2275400400
  O        19.5328123100       17.6589280200       20.8475283200
  O        17.6637837300       20.8852561900       23.3532486100
  O        16.5149030200       17.1722725600       24.3132864400
  O        19.1603049400       20.7630260600       18.6385832600
  O        21.5856897200       19.7944270000       24.5059694300
  O        19.3105860000       16.8884138800       24.2439186200
  O        16.4508751900       17.2882538400       21.6264475900
  O        20.6987753900       21.8083682600       23.3330683800
  O        16.5368690000       20.0772293800       20.9373168500
      39
 i =        1, time =        0.000, E =      -223.8484691075
  H        21.8227617600       19.1160619500       18.5527037900
  H        21.0133366400       22.7792901800       19.8050934300
  H        20.7602533100       22.1266301400       21.2927634300
  H        21.4445714000       15.9344728200       22.1938382100
  H        20.3824128200       17.1800808200       22.0078478800
  H        17.8509561200       19.5720120200       26.1500483000
  H        17.9652357900       20.0554716500       24.5570771900
  H        20.1830511900       18.6939910200       20.2692689900
  H        18.7317826500       18.3815503900       21.0409642400
  H        18.6328686600       21.4771339100       22.9849441600
  H        17.3008199900       20.7679966100       22.5479729500
  H        16.8914187500       16.7163462100       24.0576502300
  H        17.1263741900       18.1682168700       24.4342252300
  H        19.0676153200       20.8092017600       19.3206112900
  H        18.9944796500       19.6588910300       18.4848453400
  H        21.1446698400       18.5840487100       24.1032440600
  H        20.2483836600       19.5214790500       24.8691277800
  H        19.1737409700       16.1289044700       23.7577965300
  H        19.0022731500       15.9954340600       25.1840825000
  H        16.6993284300       17.7265639500       22.4225293100
  H        16.4221974600       17.1029346800       20.9868835100
  H        20.8136392100       20.8526232900       23.1938494000
  H        20.5440269900       22.2827065700       23.7842118200
  H        16.3943829600       19.3110510700       20.8648220900
  H        16.8400124800       20.3911261500       19.9818066200
  H        21.2596528000       20.3042251700       19.2955891100
  O        21.0405991700       19.3990594300       19.0166058600
  O        20.9097258600       21.9318042000       20.2774534600
  O        20.9137760400       16.6508955200       22.6890702400
  O        18.2732356700       19.3184583200       25.2566765200
  O        19.6753545000       18.6268517100       21.1423951000
  O        17.8104978500       21.1105500700       23.3747190500
  O        16.4579752000       17.6101259800       23.9844661500
  O        18.4063027300       20.3419565200       18.7700678400
  O        21.1500061300       19.5061543300       24.3977367600
  O        18.5204639500       15.7416051100       24.3984153900
  O        17.0333428800       17.7652335000       21.4516177200
  O        20.5901243800       21.7574970900       22.9926774900
  O        16.2487239700       20.2994866100       20.8067123800
      39
 i =        1, time =        0.000, E =      -223.8304312888
  H        21.9966294200       18.1693213200       19.2263177300
  H        18.4968764400       21.6372191500       20.0326988000
  H        19.9974853000       21.8927190300       20.0555280300
  H        21.7971659100       17.4539156500       22.8319071900
  H        20.4608441100       17.8751719400       22.1932075500
  H        18.1404383800       19.6778076300       26.1395499300
  H        17.9913390900       19.7314143100       24.5952724000
  H        19.1951150100       18.0971405300       19.9803333500
  H        18.5036306900       17.9189614200       21.2093159700
  H        18.9067609200       21.4184001800       23.3051943200
  H        17.4110565100       21.3730611600       22.8361158900
  H        17.2818181000       16.8866248900       23.8046175200
  H        16.1778776000       17.7274340900       24.3446318700
  H        19.5532102600       19.8191299800       18.6914574700
  H        18.5072396700       18.9742422900       17.9097002100
  H        21.2743505900       19.2151725400       24.2827706000
  H        20.0446399800       19.7218524600       25.2056587800
  H        19.5075294800       16.7807210800       23.9497321900
  H        18.7004661700       17.3933226100       25.0699464200
  H        16.4671757200       18.3659463600       22.1211102800
  H        15.7764289500       18.5064286100       20.6454335300
  H        20.6337675400       21.3719781900       23.9692082200
  H        20.8728230100       22.9202582600       23.3235159000
  H        16.7908749500       20.3991535200       20.7770658400
  H        16.1243725300       21.7557042300       21.0712507000
  H        21.4616772200       17.3995972200       20.3251343100
  O        22.0569044500       17.2930228700       19.5312145100
  O        19.2915946400       21.4864562500       19.5245313700
  O        20.9919682000       17.9052914800       23.0222468100
  O        18.3701037100       19.1622580000       25.3299903000
  O        19.3360330500       17.6440451900       20.8060677200
  O        17.9645479200       21.1668359800       23.5823925000
  O        16.5383694400       17.4370171600       23.4865648400
  O        19.3765999000       18.9434992100       18.2728981400
  O        20.9578227400       19.9874645000       24.8542301800
  O        18.7347479200       16.5332833300       24.5449657100
  O        16.5058579900       18.7772044500       21.1993370700
  O        20.2449133200       22.1767602600       23.4406590800
  O        16.9529184500       21.3673405300       20.8530775300
      39
 i =        1, time =        0.000, E =      -223.8394288383
  H        20.9045381900       20.1619539300       19.7242351000
  H        19.1326168300       22.4577531600       19.6898449300
  H        19.9395100500       21.8265135100       20.9739907200
  H        19.3418019200       15.3799006600       22.3805852800
  H        20.5396131400       16.2774142200       22.4409721700
  H        17.3064472000       20.4692495400       25.8661967000
  H        17.7028087200       21.1326393700       24.4962617700
  H        20.7940514900       18.1402821700       20.5586104200
  H        19.3913529500       17.5798988000       21.0528008700
  H        19.1120078900       22.2870378900       23.1222459500
  H        17.6501965700       22.0817227900       22.7386958800
  H        17.5484800200       17.1632712700       24.6511848400
  H        17.1003175300       18.5223802200       24.1921310800
  H        18.1921168100       18.7648765300       18.1758374200
  H        17.9520993700       20.1971395500       17.8563292600
  H        20.1848636100       18.8037022600       23.0432138100
  H        19.9142211800       18.5472088900       24.4750071400
  H        19.7599469300       16.2730365800       24.5162847800
  H        19.5338230700       16.5374018400       26.0577225300
  H        17.4520935900       17.6902907700       22.4032944900
  H        17.0255967200       17.0096224400       21.1494650500
  H        20.5408385000       20.7815830600       23.4569394200
  H        21.4064846000       22.1370982900       23.2311930200
  H        16.6164241700       19.8129174300       21.4301939900
  H        17.8916132400       20.7182343800       20.9130357300
  H        20.3420878900       19.3815611500       18.6513797700
  O        21.1603680200       19.4246875400       19.1456703500
  O        19.4549540500       21.6053526000       20.1060551700
  O        20.0410664700       15.6490576300       23.0025567300
  O        17.3701609300       20.2514205400       24.8666963600
  O        20.3678572700       17.3905032200       21.0976842100
  O        18.1606820400       22.4428732000       23.4367888300
  O        16.9391791800       17.5972857200       24.0406787600
  O        18.7096666500       19.5444506300       17.9880604200
  O        20.4202964900       19.1882839500       23.9390069100
  O        19.3569021500       16.8906897100       25.1928009100
  O        17.6158933000       17.7302965300       21.4188756000
  O        20.6575676300       21.6161115500       22.8833890700
  O        16.9919082100       20.6974001400       21.3708034100
      39
 i =        1, time =        0.000, E =      -223.8544025003
  H        21.1022061400       18.5677189300       19.1283385800
  H        19.9175975500       22.4034206200       20.5867903000
  H        19.2823803000       23.6726472600       19.6414869500
  H        21.2367900000       17.5231412200       22.0388010300
  H        21.2858884800       17.1217897000       23.5706650400
  H        18.9708947500       19.9989688600       25.7079182300
  H        18.5287157400       20.3119357400       24.2623868800
  H        19.6793204100       17.4828778400       20.4226855800
  H        18.4226088700       16.8724604900       21.0721023000
  H        18.6742032700       21.8962852500       22.8956327400
  H        17.4377821300       20.8928330800       22.4185965700
  H        17.8070094500       16.8189795500       24.7567534900
  H        17.6514453800       18.2399178900       25.0508388200
  H        18.5447071000       21.3126358900       19.0492593300
  H        17.8173744000       20.3213861200       18.0402699700
  H        21.7938528900       19.1925454000       23.4435303800
  H        20.5929453500       19.9265343700       24.0847546300
  H        19.3774132200       16.1874627200       22.9970669800
  H        19.4270107100       15.0843161900       24.0086919500
  H        16.3253049800       17.4502305200       23.4821919700
  H        15.1743119000       17.6813679200       22.4018443700
  H        20.9467453500       21.2808382000       22.7572949800
  H        20.8473868600       22.8525319100       22.8562322400
  H        16.5229882000       19.0478851500       21.7691409400
  H        17.2282867700       19.7674005600       20.4568937100
  H        19.5351249000       19.1839257900       18.8228340300
  O        20.1352709300       18.4383899900       19.1479464900
  O        19.5107213700       22.7439320400       19.7424236600
  O        21.8022559100       17.4809506200       22.8524832300
  O        18.9729938500       19.5689667600       24.8032731700
  O        19.3945595700       17.0392988000       21.2610664000
  O        17.9509126800       21.2620245400       23.1604404300
  O        17.0831966200       17.4086189800       25.0762399200
  O        18.3741442600       20.3278144100       18.8412851500
  O        21.4730274300       20.0900895100       23.7153540700
  O        19.2353134100       16.0107427800       23.9578350200
  O        16.1582245100       17.5153718400       22.4570744300
  O        20.5173149000       22.1403403300       22.3146466800
  O        16.5847399800       19.9415557400       21.2550570500
      39
 i =        1, time =        0.000, E =      -223.8265429446
  H        20.9248181700       20.3905227900       20.0071514700
  H        17.7351651800       22.8335931900       21.2400605400
  H        19.0512127700       22.1851042200       21.4859563200
  H        22.8613545500       17.4958003700       22.4175868000
  H        21.3208590500       17.5580351700       22.5146870400
  H        18.4917764500       20.6770089000       25.4660085800
  H        17.7195569100       19.9584493200       24.4221667100
  H        20.1337220000       18.2267785500       20.4778606000
  H        19.1042834400       17.8858133700       21.5148166500
  H        15.8080673200       22.0196039500       23.1631135800
  H        16.6537211000       21.1974485600       22.0387821000
  H        17.7052573000       15.6179991500       24.2615774300
  H        16.8028284500       16.3360228300       25.3285509500
  H        18.5424728600       21.2678211500       19.5387922700
  H        17.7475348600       21.3019139700       18.2715469300
  H        21.4419593900       19.3944670200       24.2028269700
  H        19.9358091500       19.7320872700       24.4122353000
  H        19.7017210300       15.5867319700       22.7896621800
  H        20.0237484300       16.2429437500       24.1125087700
  H        17.3302630300       17.3332043900       22.9544627500
  H        17.6889821100       17.1073812400       21.4426215800
  H        20.7634293700       20.7873981700       22.5742930800
  H        21.6274445200       21.8993333000       21.7604294600
  H        16.9378841200       19.1031731800       21.2951976200
  H        17.1534425200       20.1030924500       20.0897071600
  H        20.4443445300       19.2985398400       18.9762513300
  O        21.1533718600       19.5303443100       19.5889644700
  O        18.4567258800       22.4662020000       20.7380500500
  O        22.1383077900       17.4047083700       23.0615791900
  O        18.3518822100       19.7668032800       25.1830512800
  O        19.8780007200       17.5227882000       21.1270190000
  O        16.6591124400       21.6407594500       22.9583919200
  O        16.9354057000       16.2294848600       24.3764013000
  O        18.3301952900       20.6618641100       18.7539959400
  O        20.8331168100       20.1320700100       24.2072837400
  O        19.5448982700       15.4120410400       23.7290479900
  O        17.6260853900       17.8284845000       22.1335502900
  O        20.7474666400       21.4032785000       21.7682054500
  O        16.5682624300       19.9410274000       20.8943223000
      39
 i =        1, time =        0.000, E =      -223.8359446209
  H        19.7975845900       17.0387596800       18.0803811100
  H        17.9751328000       20.7473515000       20.0774696900
  H        18.9697257100       21.8028667800       20.5955096700
  H        22.1557013800       17.7214739900       22.8350189300
  H        20.5434924400       18.1358326100       22.6767389000
  H        18.0027892800       19.9190282000       25.9888672500
  H        18.0895260000       20.1032631400       24.4916441700
  H        19.4816582900       18.4321103600       20.4464905100
  H        18.8097194700       19.1514272000       21.3949478800
  H        18.6525290100       21.9115201000       23.3278921200
  H        17.2898472100       21.4954727300       22.9274470200
  H        18.5295500800       16.4299201100       24.4850931500
  H        17.8397108900       17.7981619200       24.8031509700
  H        19.5259362700       20.5557103900       18.4597997200
  H        20.0048534500       20.8717943100       17.0535205400
  H        21.3511131200       19.8044906000       23.9859332000
  H        20.0516492800       20.1397456300       24.6878412200
  H        20.5811794600       16.7088421900       24.5653664200
  H        20.2530263700       15.2259115900       25.0401960300
  H        16.6297835000       17.3871143200       23.0518656100
  H        15.2099402500       18.0842280900       23.0277548100
  H        20.5783704200       21.4514597200       22.8384309100
  H        20.8604892200       22.8591003700       22.0258704600
  H        16.3841457900       18.9382009500       21.3777741500
  H        16.3682931700       19.1051515500       19.8810194600
  H        19.9028569300       18.5068980700       18.1735744300
  O        20.0031327600       17.6968116800       18.7098868000
  O        18.5696557600       21.4471365200       19.7632874200
  O        21.2898598800       17.7404797200       23.2721214700
  O        18.3816653500       19.4670898500       25.2120591700
  O        19.6750238700       18.7453112600       21.3088630200
  O        17.8359965100       21.5947634600       23.7202594400
  O        17.6611991400       16.9639084200       24.3080099600
  O        19.8781951900       20.1232811900       17.6632492400
  O        20.7604347500       20.5417146400       24.2237426800
  O        20.0220810000       16.2354677700       25.2352604200
  O        15.9527072700       17.8978686500       22.4419094100
  O        20.4270763600       21.9953755100       22.0272728000
  O        16.7540252500       19.5671613500       20.6628760100
      39
 i =        1, time =        0.000, E =      -223.8671138489
  H        21.4042999000       20.6239584700       20.4518881500
  H        17.8200411000       21.3765114300       20.1520829700
  H        19.2341264900       21.9745187800       20.5055225700
  H        21.1026174600       17.2440941000       22.7868446800
  H        21.2900849000       17.2393677100       24.3372170000
  H        17.5784458300       20.1519183300       26.0957416200
  H        17.4295557800       20.4509637400       24.6081869800
  H        20.6655624400       18.7483015400       20.8966501800
  H        19.3859025000       18.0444333100       21.6346777100
  H        16.9135690400       22.1206649400       23.1366058900
  H        16.3540254400       20.6875580000       22.5106736300
  H        17.9596299300       16.6377050200       24.4504564100
  H        17.1961945500       17.8610645300       24.8558673800
  H        19.2023388800       20.7448900500       18.6513001600
  H        18.6627533300       19.5171064100       17.8343316700
  H        20.3305114600       19.3731389200       23.0829593700
  H        19.5415143600       20.0105082800       24.3313037200
  H        19.8247799400       15.5479957600       24.0389480800
  H        19.3698647500       14.6769728400       25.1815174200
  H        17.5300716700       17.7692845800       22.6207874300
  H        17.4422711700       17.1429090500       21.2099764900
  H        20.5401101500       21.3617473100       22.6534701100
  H        21.2855882900       22.6072722400       21.9438169200
  H        16.9152578600       19.3779539500       20.9273605300
  H        15.5192442900       19.7460940100       20.3443236300
  H        21.2057107300       19.7915872900       19.1958481800
  O        21.7653910900       19.7865282400       20.0034425300
  O        18.4745345600       22.0894654000       19.8777740900
  O        21.2536662900       16.6274964200       23.5698444000
  O        17.8665908200       19.7859480200       25.2241888000
  O        20.3801930100       18.1613644300       21.6461923900
  O        16.6229831900       21.2019558100       23.3366519800
  O        17.2910610400       17.2395606100       24.0988644100
  O        19.4415533600       19.7913258800       18.3788114300
  O        20.3559300200       20.0906068800       23.7343359600
  O        19.0385593900       15.3001719400       24.5300784400
  O        17.7740996500       17.9527248000       21.6027844600
  O        20.7313398400       21.8256151800       21.7534315000
  O        16.3496347700       20.1319353000       20.6576471400
      39
 i =        1, time =        0.000, E =      -223.8503411164
  H        21.4943736900       20.1041942900       19.7245809900
  H        18.1981978500       22.8066865800       19.2163453300
  H        19.0738902600       22.1239313000       20.3096940800
  H        22.3416668300       16.4043445400       22.5367023300
  H        20.8479876300       16.6532490000       22.1301366800
  H        17.2827751400       20.2396122700       25.9615800000
  H        17.9668900200       20.1648006900       24.5999595500
  H        20.0949407400       18.6506778200       20.9418145400
  H        18.8317567200       17.7411189000       20.9864129600
  H        18.9570705100       21.2402706200       22.8878322300
  H        17.6575997400       21.9137750400       22.9267061700
  H        17.7348058800       16.7632914800       24.3856017600
  H        17.2949782300       18.2509520300       24.6657010800
  H        17.8395013200       20.1177152400       18.9093066400
  H        18.3763749900       19.8365629900       17.3500358000
  H        21.2092734200       19.0413059400       25.3026744300
  H        21.1236811200       18.1558742100       24.0616302000
  H        19.8460212200       15.6454674200       24.2621649300
  H        19.1052548600       14.4877043600       24.8962161100
  H        17.2439080700       17.8227567600       22.5415650700
  H        16.4441290800       17.5006970100       21.2589097600
  H        20.9163042500       21.1606352600       21.9733635300
  H        20.9455842500       20.6574697300       23.5806925300
  H        16.9241728100       19.6803170300       20.8917224600
  H        17.1965869800       21.1574357500       20.5165378400
  H        20.0903059900       20.5573812300       19.3342399100
  O        20.7877787000       20.6416771900       20.0439895900
  O        18.3920942800       22.7594092900       20.1584844400
  O        21.4394302800       16.5014417900       22.9049231100
  O        17.8309852000       19.6472395500       25.4590090800
  O        19.8551810600       17.7264200900       21.0277143400
  O        17.9865726600       20.9797320700       22.9655152500
  O        17.0619910300       17.4439008500       24.1399033700
  O        18.5952994700       20.2236299800       18.2210203200
  O        21.4547848900       19.0355649200       24.3340805200
  O        19.0368835500       15.4071136100       24.6667640700
  O        17.2141650500       17.9834257900       21.5482493400
  O        20.7186978800       21.4205022600       22.9438218600
  O        16.7616204000       20.3375176700       20.1446138600
      39
 i =        1, time =        0.000, E =      -223.8557254672
  H        22.2070521000       18.5363813400       19.3307218200
  H        18.0176027400       21.1241382700       20.0248466100
  H        19.2468376100       22.0924522900       20.2540471800
  H        22.0073332100       16.7447456600       23.1313221600
  H        20.7412262700       17.4852273500       22.4290090300
  H        17.4177167000       19.6991288800       26.2484838700
  H        17.5107443900       20.2578144300       24.8261415200
  H        20.3224466200       18.6509083700       20.9460855400
  H        19.0284107000       18.2384906900       21.7686726900
  H        17.0439048900       20.8056819800       22.7815257200
  H        18.3828062100       21.5370215700       23.1486979100
  H        17.7892265600       16.5208040400       24.5915569200
  H        17.1947465800       17.9758306200       24.6461731600
  H        19.5040767300       21.0676289300       18.2655536300
  H        20.2202008600       21.2777833400       16.8790223500
  H        21.3532235500       19.9920147200       23.9959341600
  H        19.9142104200       20.0803316300       24.4798596900
  H        19.8641680000       16.0726920500       24.1858881000
  H        19.2310447300       14.8910852400       25.1138709500
  H        17.1191278000       17.1935791800       22.5677682300
  H        17.3238485400       16.8592097200       21.0562491700
  H        20.6930095700       21.8210102900       22.5275063100
  H        20.1810898100       20.6260848000       21.8222736700
  H        16.6828176600       19.1244120100       21.3785006800
  H        15.5325964700       20.1498028600       20.8628078600
  H        20.8622591300       19.1450167000       18.7677002100
  O        21.2296533400       18.5196742200       19.4945807400
  O        18.5250009400       21.8347122300       19.5774091400
  O        21.0646872800       16.5581359900       22.8132005300
  O        17.5656165100       19.4095288200       25.3439587800
  O        19.9237011100       18.8112037800       21.8580989000
  O        17.4542448300       21.4248298200       23.4717370000
  O        16.9595259500       17.0539706000       24.2161821700
  O        20.2953136700       20.7881121300       17.7296998100
  O        20.7455993100       20.5937607700       24.4873741100
  O        19.3225295400       15.8631560200       25.0300976400
  O        17.3627290900       17.6036164400       21.6756831000
  O        20.1858649000       21.5980211300       21.7562914900
  O        16.4787337300       20.1061206100       21.1114564200
      39
 i =        1, time =        0.000, E =      -223.8329199920
  H        19.8241684000       19.9968828000       18.7267924900
  H        21.3861570400       22.7991535200       20.0544991000
  H        20.9331504200       22.0067192400       21.4081350900
  H        19.8302688600       14.8106631500       22.2080149600
  H        19.9022767900       16.3890722100       22.1978920600
  H        19.0494472300       18.7054472700       25.4340382000
  H        18.7823907000       19.9958357200       24.6341711000
  H        19.9612011400       18.2731316800       20.3208888800
  H        18.7578449800       17.8779781500       21.1439655100
  H        18.9412113500       21.2490020600       23.3056773200
  H        17.7438923600       20.8092108800       22.5771203500
  H        16.8257189200       17.7958277600       24.5672811900
  H        16.7174937200       19.2960290100       24.5262603900
  H        19.3646435500       21.6242719100       19.8753460000
  H        18.2774263000       21.9119714900       18.7510244900
  H        21.0486138000       18.2367786900       22.4533089700
  H        21.3571146500       18.1973608900       23.9602550700
  H        19.1451570700       16.1468100800       23.9742088400
  H        17.7627827400       15.9292204500       24.9889290600