      36
 i =        1, time =        0.000, E =      -206.6213814642
  H        17.5055972600       21.7164555600       18.6119576400
  H        20.1275202000       18.7476041700       19.4657063300
  H        21.5107113900       19.5854167100       19.4111095300
  H        18.8853487200       16.6217481100       18.7915985500
  H        17.9978598300       17.7662112900       19.2968091600
  H        23.3553244400       20.9616596700       20.2929066500
  H        23.0397556400       22.2761466200       19.3453861900
  H        16.3872019100       19.4560376600       18.9146100600
  H        16.3142472500       18.7209359900       20.3484145100
  H        20.8160485900       23.0323911000       18.8262815300
  H        21.7499955600       24.3320773800       18.6901863700
  H        19.9717639900       18.7688508700       22.9184300300
  H        20.2063631300       19.4880564700       21.5141497600
  H        20.0431841500       21.1102095500       19.0714464200
  H        19.3822550500       22.0325618200       19.9855515700
  H        23.4694571500       19.1830658800       22.1530102100
  H        22.2412001000       18.3464179700       21.4046056800
  H        19.9343310500       16.8499726200       20.8440357700
  H        20.4530465800       16.0085215900       22.0486097100
  H        18.0622915900       19.0527777300       22.2633131600
  H        17.7862395800       17.7759153700       21.4695153600
  H        23.2745571500       18.7676606200       19.3496251500
  H        23.2737238700       20.1157613000       18.4559355800
  H        15.9933499100       22.0281341600       18.6231054500
  O        16.6313921500       21.3423572900       18.6972653300
  O        20.5944944700       19.5505751900       19.8559035100
  O        18.8857510200       17.2955514200       19.4464205700
  O        23.7011897500       21.5511441400       19.5726021800
  O        16.4233229900       18.5875077200       19.3547293200
  O        21.7032972200       23.4249765400       19.0847909200
  O        20.0234022400       19.6566576800       22.4823621500
  O        19.4261811600       21.9035759300       19.0086183500
  O        23.1646723200       18.7879835100       21.3084634200
  O        20.3982870400       16.9073976500       21.7327040100
  O        17.3536465000       18.3596498100       22.0902999700
  O        22.8643248000       19.1802486800       18.5119381400
      36
 i =        1, time =        0.000, E =      -206.5905386003
  H        15.8743253200       22.3448360100       19.4084993700
  H        19.4347625300       18.9122798700       19.3251257900
  H        20.8972110700       19.3810281500       19.0055769600
  H        18.0278155200       16.9346988700       18.3194870100
  H        17.4178321900       17.9335233800       19.4161847900
  H        24.7011755800       21.9260352300       18.4447133300
  H        25.8888212900       22.8151560200       18.6852755400
  H        16.3082450400       19.9179811700       19.2067413000
  H        16.3654317800       19.0909150400       20.5845068100
  H        22.0806077900       22.5388197700       19.0512811900
  H        22.5014027500       21.0246535800       18.8580642500
  H        21.3159724300       19.8569947200       22.1430007300
  H        21.8655300200       20.2657037300       23.5070419300
  H        19.2753179000       21.0356935400       19.6148132600
  H        19.8585113300       21.9754511000       20.6996950600
  H        22.5762166600       17.3421952600       21.5610134900
  H        20.9924021300       17.2834001300       21.3224182600
  H        19.1028165800       16.5958756500       20.3751332700
  H        19.0975256900       15.7437809700       21.6289682100
  H        18.0366445900       18.4034976100       22.2206990200
  H        17.7610614200       19.8878021100       22.6186060100
  H        22.4096763100       18.5581258400       19.8100070800
  H        23.2075970500       18.3654368000       18.4265274500
  H        17.3784727800       22.0696584300       19.4853864500
  O        16.5811546000       21.9259094000       18.9778701700
  O        19.9539276900       19.7457498400       19.3179113500
  O        18.1987715300       17.3444461200       19.2244958400
  O        25.7114563200       21.8930613000       18.4427714700
  O        16.2076113300       18.9897147100       19.5635832200
  O        22.8655064200       21.9644667100       19.0275969400
  O        21.1298504200       20.5402491200       22.8191777400
  O        19.0966784700       21.9218858900       20.0481442900
  O        21.8772416300       17.9744206000       21.3123470000
  O        19.7025156600       16.3994573000       21.1917669100
  O        17.3090163700       19.1045621900       22.2814397900
  O        22.4988067600       18.9037983900       18.8367713500
      36
 i =        1, time =        0.000, E =      -206.6131887055
  H        16.4007513000       21.5296796000       20.5594547000
  H        19.7362004800       18.9881926700       18.5194812300
  H        21.1234532900       19.6105787200       18.6618290900
  H        19.2055973700       16.9040695500       18.2847127800
  H        18.4264968800       17.7967621800       19.3934232300
  H        23.2255802200       21.6238991400       17.4369205300
  H        22.7454637700       22.6627269400       18.5012348300
  H        17.0276434300       19.2330688100       20.3536324300
  H        16.0086175200       18.1468134500       20.0540700900
  H        20.7053808500       23.2912977800       19.1066571700
  H        21.2272986200       24.5692780700       19.8410557800
  H        20.0719977800       19.4949396500       21.3835788700
  H        19.4058975800       20.1123570900       22.6207938000
  H        19.6606398800       20.9622477300       18.9122347700
  H        19.6426647600       21.4906883200       20.4986241400
  H        23.7377775700       17.0311986400       21.2160338700
  H        22.5321953400       17.7499244700       21.9885148900
  H        20.0078119000       17.1861833200       20.9363073000
  H        19.4287856100       17.4130657400       22.2712491200
  H        17.8997556100       15.9618564800       22.4150817600
  H        17.3577401100       17.1646924100       21.5763454800
  H        22.8894985000       19.0675870300       20.0303381400
  H        23.0377856200       20.5157058800       19.3128861200
  H        17.6876505300       21.4807670600       19.5049792800
  O        16.9038063200       21.0227686900       19.8994422500
  O        20.1638371000       19.7707427000       18.2504553600
  O        19.3003912500       17.3741008100       19.1362893200
  O        23.5391737400       22.0401856300       18.2750485300
  O        16.9493617900       18.2531262400       20.1511153400
  O        21.3803161900       24.0038757900       19.0304926900
  O        19.7632209300       20.3519615700       21.7944204300
  O        19.4443076200       21.8248025700       19.4864947000
  O        23.3105688100       17.9246826200       21.3686403600
  O        20.3267112800       17.4967589700       21.8342739900
  O        17.7727608900       16.9378195500       22.4350865000
  O        22.4786033500       19.7205028900       19.4034955500
      36
 i =        1, time =        0.000, E =      -206.6252303370
  H        16.1503180100       21.3122401200       18.8988280200
  H        19.9248651600       18.4308349800       18.5455173400
  H        21.3338638000       19.1190156900       18.6485842900
  H        18.3244796500       16.9966186600       17.7059462700
  H        18.2302708700       17.4992079400       19.2466487100
  H        23.9851396400       21.9267511800       17.0968004600
  H        23.4394003200       22.3204063000       18.5334539200
  H        16.8413981800       19.1734218100       19.8032156900
  H        17.2685854100       18.6477159500       21.1495980800
  H        21.2512093300       22.8879319600       19.4095637500
  H        21.7475558400       24.3316480900       19.6408269100
  H        20.2629769200       19.7081084500       20.4798510800
  H        20.8455221500       19.5079665400       22.0036663400
  H        19.7925034700       21.0331314800       19.0307423300
  H        19.8365563900       21.8191266300       20.3548118100
  H        21.1124650000       17.7980301700       22.6400497700
  H        21.8520593600       18.4843534500       23.8372747600
  H        19.0175440600       17.2611865700       21.8104085600
  H        19.8169870300       16.8985455200       20.6336586500
  H        18.7150993700       19.8350372200       22.1040794100
  H        17.6608199500       19.6392586700       23.3174400300
  H        23.3327186100       18.9557264100       19.3311187700
  H        23.1904474100       20.2249642800       18.3028184000
  H        17.5083486400       21.2445526800       19.7997472300
  O        16.5169117900       21.0463961300       19.7541104000
  O        20.3079739200       19.2741433800       18.7918654700
  O        18.7591203100       17.0099234800       18.5457220400
  O        23.7770314600       21.5684824100       17.9844113800
  O        17.3128280100       18.3626119200       20.2222106800
  O        22.0519292200       23.4391642700       19.3839626200
  O        20.2261830700       20.0768276500       21.4058762200
  O        19.5736789600       21.9207712300       19.3707827300
  O        21.8034605100       18.4768449700       22.8705356500
  O        19.8594344000       16.8156928200       21.6443095400
  O        18.1064764200       19.1518863700       22.5995392200
  O        22.8963700300       19.2592668500       18.5583849300
      36
 i =        1, time =        0.000, E =      -206.6153371114
  H        16.7272463900       22.3838094400       19.8884945900
  H        19.8020607100       18.8266281200       18.3360191700
  H        21.2663036300       19.4850614700       18.1769095100
  H        17.8684366100       16.9602235900       18.3330069400
  H        17.8941296000       17.6639649400       19.6872991300
  H        24.6538373600       21.6968455800       19.4389968500
  H        23.3094782100       22.3024097900       18.6631408400
  H        16.3211116900       19.3185196700       20.2401972400
  H        16.4107612900       18.4471593800       21.5244124900
  H        21.3205217700       23.0616210100       18.5030740500
  H        21.8686738300       22.8533495300       17.1327250700
  H        19.9341348700       19.9357697900       20.5938516000
  H        20.2666599300       19.2520213300       21.8835204000
  H        19.8180916800       21.1793268700       19.0373908800
  H        20.1692857700       21.9622408900       20.2942856600
  H        23.2952436100       16.7926426100       21.4379519900
  H        21.8640424900       17.2498697700       21.4517157000
  H        19.7376402400       16.3375821700       21.9626730400
  H        19.8224518800       17.4348992200       22.9311723200
  H        18.2538911700       19.5943463600       22.2305162200
  H        17.7750172100       19.5559064100       23.6963924400
  H        22.4665178000       18.4639244000       19.4033579400
  H        23.1767615700       19.8461949900       19.0454788900
  H        17.9101588500       21.4930880000       20.0516150800
  O        16.9385007300       21.5019258300       20.2805961800
  O        20.2581545000       19.7142556800       18.2572317800
  O        18.5263463700       17.2763033300       19.0250490400
  O        23.7990438900       21.5158806600       19.0150463700
  O        16.4522007100       18.3495537300       20.5549049600
  O        22.0931003300       23.2805161100       17.9857666600
  O        19.9510776000       20.1336455400       21.5512580600
  O        19.6624599300       22.1060559700       19.4406875900
  O        22.7342387200       17.5462490700       21.1583905600
  O        20.3464982200       17.0390447300       22.2258342400
  O        17.7208987400       19.0522173600       22.8455510800
  O        22.6779230000       19.0727527200       18.6893564700
      36
 i =        1, time =        0.000, E =      -206.6191910929
  H        16.6753688900       21.4893567000       18.7035793900
  H        19.5981790700       18.1227547200       18.9540443600
  H        21.1573007700       18.7626201300       18.9384132400
  H        18.5995866400       15.9734578700       18.7253326300
  H        17.6963288900       17.0647746300       19.5151346900
  H        23.7780168000       22.5577422600       20.4760819300
  H        22.7349554800       22.3845584100       19.3572857500
  H        16.4002817000       18.9926931500       19.6230067400
  H        15.8374371400       17.7750253100       20.3196182000
  H        20.7623887500       22.9996222200       18.6391700100
  H        21.1987557400       24.4541353800       18.4293900100
  H        22.0084967500       21.4895232200       21.3602843300
  H        20.9083941800       21.7785137800       22.5031310500
  H        19.8296373900       20.5664657300       19.1987464400
  H        19.6014560800       21.6379092100       20.2895318200
  H        22.8220346200       18.5270251400       21.9950272800
  H        21.6503966400       17.5968223600       21.4904351800
  H        19.6314266300       16.4965491500       20.8939301000
  H        19.0662777500       17.7202145900       21.7093525200
  H        19.0913000000       19.7665512100       21.0186868500
  H        19.4440390600       19.5739828800       22.4806192900
  H        22.9097826000       18.7233247400       19.9465294700
  H        22.9999020600       20.0565175500       19.2344234900
  H        17.6561110500       20.9006481600       19.7752631500
  O        16.7044867700       20.8653850800       19.5039369800
  O        20.1666162000       19.0104921700       19.0409309900
  O        18.6670905300       16.7813741500       19.2764256100
  O        23.1667406500       21.9020327400       20.1338372200
  O        16.4360744900       18.0173786900       19.6067932800
  O        21.5505881700       23.5294109300       18.3894027600
  O        21.1436210000       21.1718555000       21.7360103700
  O        19.3386304600       21.4468099400       19.3746554200
  O        22.6213324000       17.8336987800       21.3766060700
  O        19.7919671100       17.0523806400       21.7324729800
  O        18.6468550800       19.6755974300       21.8962668800
  O        22.9185394500       19.0932285200       18.9854682400
      36
 i =        1, time =        0.000, E =      -206.6232481623
  H        17.1776826000       20.8990375100       18.8262623700
  H        19.1087590600       19.5550425800       18.0537597900
  H        20.6572758000       19.6566376700       17.9332460600
  H        17.8975935400       17.1274522600       19.1311660600
  H        17.7781089300       18.4256485700       20.1344035800
  H        24.0543643800       21.6022082600       17.7726304800
  H        22.7340806300       21.8002100500       18.5818544800
  H        16.6170209200       20.1813522300       20.8864230800
  H        16.8796706200       19.0886581600       21.9713484300
  H        20.8606480500       22.8378171200       19.2991616100
  H        20.9926775100       23.5090349700       17.8299524800
  H        20.8670252800       18.8720449800       21.7699814700
  H        21.5216024500       20.1773752100       22.6110373500
  H        19.8936024000       20.9894765100       19.3989647800
  H        19.9393604900       21.0411850100       21.0087273300
  H        23.3605975300       16.3283541700       20.0871597000
  H        22.0892253800       16.9472290600       20.6343927300
  H        19.6825491000       17.2012059500       20.7708679400
  H        20.0873999900       16.2530485500       21.8703529800
  H        18.9889617600       19.3959778800       22.9445315100
  H        18.3434884000       19.3965406700       24.2984525200
  H        22.3931886400       18.2698170100       18.9573634300
  H        22.7501272600       19.6743433700       18.3273718400
  H        17.8644969500       21.7481217800       20.0622869900
  O        16.9594841700       21.4177815400       19.6712137300
  O        19.8183580800       20.2402519700       17.8766467900
  O        18.4295620600       17.8575951400       19.5257157100
  O        23.5467998400       21.2438061000       18.5216413000
  O        16.6796634700       19.1973643400       21.0408549000
  O        21.5011458900       23.1426185400       18.5855525100
  O        20.6911007400       19.8686186500       22.1783941200
  O        19.7341596200       21.5619798700       20.1524024600
  O        22.9854294900       17.1227425300       20.4147883000
  O        20.4727733000       17.0305101700       21.4426925900
  O        18.1908424100       19.0572698300       23.3796136800
  O        22.1128771700       18.9184003800       18.2894574300
      36
 i =        1, time =        0.000, E =      -206.6170219808
  H        16.8261017900       22.2900716200       19.4084120600
  H        19.8193360600       18.9003582000       18.1895355300
  H        21.3540054500       19.2470666100       18.2814446000
  H        18.1044257300       16.8086588400       17.9412183900
  H        17.9319038300       17.6746927200       19.1703360500
  H        23.1886916500       21.0030230500       17.8264265200
  H        22.8759451100       22.2911314300       18.6240317600
  H        16.9394251100       19.7801416600       19.2914259000
  H        17.1968768400       18.9575651100       20.5940787000
  H        21.2784634900       22.9209919000       19.6394545300
  H        21.7663365500       24.1477692500       18.8257089000
  H        21.1421301200       19.2969656900       22.4666569600
  H        21.1625355800       20.7915955500       22.1990835900
  H        20.2540938800       21.1529242600       19.0444165600
  H        19.9650110800       21.0325745000       20.5217165200
  H        22.2765355800       18.2816226600       21.0404990600
  H        21.0343697500       17.3461049000       21.4603617900
  H        18.7683093300       16.4228451000       20.6219439300
  H        19.4309994000       15.5856597400       21.9352435200
  H        18.1325372700       19.8048069500       22.4046551200
  H        18.3565284800       18.3322396300       22.2885608000
  H        24.2114268900       18.9535339200       19.8065536600
  H        23.2954571000       20.1620339000       19.5867998100
  H        18.1167075200       21.6490157700       18.6857474500
  O        17.1398287700       21.6125152500       18.7582808700
  O        20.4440413700       19.6372486200       18.2513901300
  O        18.6561366000       17.1401455400       18.6748278700
  O        23.5068440500       21.4832157500       18.5708318400
  O        17.0225549100       18.8024099800       19.6249583500
  O        22.0649024500       23.4569051300       19.4379787200
  O        20.5230337200       20.1159271100       22.5130063900
  O        19.9104470700       21.7535417000       19.8353302800
  O        21.7109587300       17.9385884300       21.8017111500
  O        19.1618436100       16.4561622000       21.5732420000
  O        17.6427943300       18.9654201800       22.2576564900
  O        23.2828224300       19.1799507400       19.9881378500
      36
 i =        1, time =        0.000, E =      -206.6133646178
  H        16.8113087000       21.1514649600       18.2804347000
  H        19.7645736300       19.2095551400       18.7238534500
  H        21.3249355000       19.6876559000       18.7993297800
  H        18.3325349200       17.6851073800       18.0668053200
  H        18.0052958600       18.0305929700       19.7208312300
  H        24.1043730600       21.9725616700       20.1745334400
  H        22.7860253800       21.8225664500       19.4046703500
  H        16.8222944400       19.4242748700       19.7975147900
  H        17.0792394000       19.1014753800       21.4068694500
  H        21.8984945600       24.2962976400       19.6606388900
  H        20.8305561700       23.2548088200       19.6907520800
  H        20.3961627700       19.6571520600       21.5418099700
  H        20.7419562500       20.7050894700       22.7134900100
  H        19.8844407500       21.1383991800       19.5351750200
  H        19.0636554800       21.7160154000       20.7771054700
  H        22.4894417400       16.1429775700       19.0215911900
  H        21.6365065600       16.6017682100       20.2909306100
  H        19.7494230500       17.5983283100       20.0414099400
  H        19.3198369800       17.4422023200       21.5338373200
  H        18.4704682000       19.6287487500       22.9134066400
  H        17.4190770600       19.4209174200       24.0452007600
  H        23.0450438700       18.3007074100       19.2097670500
  H        23.5575806400       19.7254316700       19.1195334800
  H        18.1764424000       21.1016120300       19.1510628800
  O        17.3927215800       20.5601957900       18.7435545900
  O        20.3588775000       20.0109725500       18.7831885600
  O        18.7235232100       17.8628003600       18.9605501900
  O        23.4314210400       21.3067926500       19.9683242600
  O        16.9275162200       18.7192760500       20.5329102800
  O        21.6975868300       23.4233338800       19.2342135100
  O        20.0078154300       20.1615068600       22.3333553100
  O        19.3982541800       22.0002860600       19.9108162900
  O        22.5458703100       16.5265362700       19.9239822600
  O        20.1130459200       17.4119165000       20.9985953000
  O        17.5459682000       19.3832157400       23.0350593400
  O        23.0318790300       19.0503040800       18.6255140000
      36
 i =        1, time =        0.000, E =      -206.6112875799
  H        15.8683166400       21.0958672300       18.2472983300
  H        19.9685677000       18.7000291900       18.9220957300
  H        21.3108374100       19.5310751300       19.2378090900
  H        18.7570974000       16.8720229900       17.9276087400
  H        18.0163482500       17.6637581600       19.2248046000
  H        24.5581094800       22.0643667800       17.8633618900
  H        23.3813603600       22.3591632200       18.8329277900
  H        15.9080958800       18.0710792000       19.9345207000
  H        16.5147896200       19.4647880100       19.5571345100
  H        20.9978139300       23.2569941200       19.4294471900
  H        22.1623061000       24.0607934600       20.0670831400
  H        19.7575356900       19.8097942800       20.7855197300
  H        20.5851657900       19.6658625200       22.0940160900
  H        19.5962367400       21.2751488800       19.2080938000
  H        20.0094807600       21.8486120600       20.5305619800
  H        23.1858526900       17.6410344100       21.9037328000
  H        21.7398336400       17.6953325800       21.3110474600
  H        19.6720825200       17.1356367600       20.5251631300
  H        19.4604576600       17.2019382300       22.1380893200
  H        18.2464653400       19.0919526800       22.8485805700
  H        17.3593635000       17.9129552200       22.2526838400
  H        23.3183416800       18.7802170300       19.8340297400
  H        23.1538735500       19.9476412900       18.7357966100
  H        17.0239223500       21.7930474200       19.1889973900
  O        16.3579769400       21.0043385800       19.0546422000
  O        20.2893498400       19.6060765200       19.2160261600
  O        18.8261065300       17.1913838200       18.8414327800
  O        24.1497465800       21.7502120600       18.7176733700
  O        16.8152649900       18.4601318600       19.8315091900
  O        21.9649367800       23.5892365900       19.2445376100
  O        19.7874984400       20.1207831700       21.7599416700
  O        19.6215481300       22.1292793100       19.7060210800
  O        22.6063755000       18.2517860700       21.4284612200
  O        20.1901995100       17.1684026800       21.3931699000
  O        17.7159633200       18.2598012400       23.0916470500
  O        22.9224344500       19.0039381000       18.9552829300
      36
 i =        1, time =        0.000, E =      -206.6219490275
  H        16.2168967000       22.0585817700       19.2856379800
  H        19.7036967300       18.3036467800       18.5681075100
  H        21.1774809400       18.9840301100       18.1732958700
  H        18.1061905900       16.8782187600       18.5035389800
  H        17.8610773500       17.8007864900       19.6740770500
  H        23.2171958600       22.1024715900       19.2261299200
  H        24.4835076700       21.6321894700       19.9573874000
  H        16.4310155000       19.8417317500       19.7062818300
  H        16.9196008900       19.2367790200       20.9989875100
  H        20.7739709500       22.5893570500       18.8208546900
  H        21.4832926800       23.8268768100       18.2371329400
  H        20.5466403200       19.6224950500       21.3796475500
  H        21.2483399400       20.8689488600       21.9994115600
  H        19.7666937200       20.6465333300       18.5735823900
  H        19.5983700400       21.1987565900       20.0638949900
  H        23.5255037100       16.0436871500       21.2219502800
  H        22.1439411300       16.6784598300       21.3665838700
  H        19.9583386900       17.1969423000       20.6217179900
  H        19.7587014300       17.4732559500       22.1282900300
  H        18.5442684200       20.3030985200       22.7510308200
  H        17.1520191900       20.8979452100       22.4624891100
  H        23.2509086800       18.0317326700       19.7933702000
  H        23.3366531600       19.4294877400       19.1873023400
  H        17.6631718800       21.4822228100       19.2711001000
  O        16.7905667800       21.5306551500       19.8325067900
  O        20.1613878900       19.0117690700       18.0188212500
  O        18.5315784000       17.0830237200       19.3495571800
  O        23.5661198600       21.3214805900       19.7448240800
  O        16.5957595800       18.9374390100       20.1267240900
  O        21.5742283300       23.1439652500       18.9661300200
  O        20.4158267500       20.5534616100       21.6100138900
  O        19.3814518500       21.4680502300       19.0811430900
  O        23.0739439400       16.9622148500       21.2127397100
  O        20.3995775300       17.7482238000       21.3479982600
  O        17.5985477000       20.1872769200       22.9043319800
  O        23.0125443500       18.5758941700       18.9591513300
      36
 i =        1, time =        0.000, E =      -206.6112177545
  H        16.5615348700       21.1964794400       20.5288907100
  H        19.8646636400       18.9694485700       18.4055853800
  H        21.3158544600       19.4758703500       18.4760500800
  H        18.9574661900       16.5148143800       18.8372631500
  H        17.8329208300       17.7888824500       19.1304709200
  H        23.9034992700       22.1531875100       18.5901257200
  H        24.1582521900       21.8704643700       20.0020737700
  H        16.7720917300       19.8944358100       18.9448742600
  H        15.8166668300       18.7447382900       19.1692566400
  H        20.9756224500       22.6350479800       19.5612295600
  H        21.5300943200       22.8415033300       18.0921243000
  H        20.3851263300       19.2536583100       22.1771477400
  H        21.1430419400       20.5018637900       22.6324553600
  H        19.8217037900       20.6478339700       19.5645711000
  H        19.4732949500       21.1252180100       21.0077216900
  H        23.3020737000       17.1198168700       21.3199118300
  H        21.8642426000       17.4149342500       21.7736725900
  H        19.6182645300       17.2143901900       20.8175028700
  H        19.3547828900       17.1115205900       22.3693153500
  H        18.1186025200       18.6058424900       22.2648261500
  H        17.3909364700       19.8773671700       22.7675853200
  H        22.7055286800       18.9152513400       19.9032350300
  H        23.4603541300       19.8432070300       19.0203683800
  H        17.7520646300       21.4670683400       19.4874925900
  O        16.7425091900       21.3965814800       19.5447832400
  O        20.4068437300       19.7632351200       18.2661517400
  O        18.7511343400       17.3456426900       19.3094250100
  O        24.1484175700       21.4064225900       19.1686566000
  O        16.6563882000       18.8980952700       18.7034716500
  O        21.8028761600       22.7818582600       19.0108137800
  O        20.2608740600       20.1260441300       22.5225142200
  O        19.4724876600       21.4921680700       20.0401906600
  O        22.7237537700       17.8504383800       21.5434740300
  O        20.0490895500       17.4006697300       21.7606301100
  O        17.2836277500       19.1403684300       22.1575328500
  O        22.8532279900       19.0444975300       18.9453537800
      36
 i =        1, time =        0.000, E =      -206.6186845236
  H        16.7940189800       20.3974456300       17.7036595800
  H        19.5560425600       18.2685616000       18.2445562500
  H        20.9551223300       18.9061809400       17.8537098000
  H        19.0378636900       16.1774643700       19.8879309500
  H        18.2529255700       17.6062383600       20.0924706000
  H        22.9776302800       21.5185033400       19.6621860000
  H        24.2741945300       21.0256665200       20.5043657900
  H        16.6290925700       19.4187029000       19.7866931500
  H        16.8525148300       18.8257365100       21.3153531400
  H        22.1046961300       23.2674600800       18.0488897700
  H        20.9313873800       22.6472443000       18.8667253600
  H        20.4654753900       20.3717524700       21.3035477100
  H        21.0177839500       21.8025777400       20.9587752100
  H        19.6204623200       20.6622013300       18.2047030000
  H        19.5236788600       21.4990016400       19.6321873400