      45
 i =        1, time =        0.000, E =      -258.2684607890
  H        19.2247018900       15.4135754200       20.4172350100
  H        22.0541078300       18.4246782500       20.0384942500
  H        23.3138297700       18.1755421700       20.8479345700
  H        17.0141655700       17.3481521000       23.2408757000
  H        17.8852789300       17.6205280300       21.8647780000
  H        17.9273422200       20.8760395200       20.2031197400
  H        18.6262805400       22.2855671600       19.7883735900
  H        18.5835915400       17.4692301900       20.0235561100
  H        17.2506836700       18.5326959500       20.2490940500
  H        21.9515813300       20.6652459200       21.4374096400
  H        21.3472517200       21.1347134400       20.1279719700
  H        18.2348704700       20.9045341100       23.0491258100
  H        17.9759275500       22.0543175600       22.1586313200
  H        22.4263829600       14.9123446400       19.1197841200
  H        22.4403913600       16.4387932600       19.2004969300
  H        21.9761018100       16.4533731500       24.4311821700
  H        20.8920039500       16.5498137600       23.3654960100
  H        18.8639123700       18.8866772500       23.1206957000
  H        20.1253804800       19.7456118600       22.9403200500
  H        16.3239016300       20.8042847900       21.8301704000
  H        15.4793333100       20.9602475200       20.4716157600
  H        22.3783017300       18.5454917900       23.0116341700
  H        22.9635303600       20.0290778200       23.2291528200
  H        20.8505132300       19.5020643100       18.4140168800
  H        19.8280150400       19.8996706300       19.5516806300
  H        18.9280933400       16.3779683100       22.7916789700
  H        19.2832509000       14.9076924300       23.1424781600
  H        19.4001320700       23.8718880100       21.6741711100
  H        20.1840408400       22.4182382300       21.3876890400
  H        20.3539095400       15.8293480000       19.1883286000
  O        19.3830742500       15.9877849400       19.6364525500
  O        22.7500584200       17.7485481000       20.1861861800
  O        17.9013186500       17.5035845400       22.8937970600
  O        18.4878653700       21.2555629200       19.5097802100
  O        18.1519698600       18.2582080700       20.4780545100
  O        21.4196935600       21.4670178200       21.0263986100
  O        17.4854359100       21.4855925500       22.7773641700
  O        21.8514610200       15.6774773700       18.7358250300
  O        21.7123799400       16.9981820100       23.7036383500
  O        19.3069968900       19.7452214200       23.4006104300
  O        16.0310971600       20.2862703100       20.9800311900
  O        22.6540545800       19.4442255500       22.5258118900
  O        20.7406016300       19.5305816400       19.3701302400
  O        19.5857035600       15.6040680200       22.5600322100
  O        19.2422798800       22.9347615400       21.4157660500
      45
 i =        1, time =        0.000, E =      -258.3109760493
  H        19.2859759500       17.0983919500       17.4929412700
  H        21.9194629200       19.1238319100       19.9573116300
  H        23.2222811000       19.0008807400       20.8767535100
  H        17.6986125200       15.4372783800       22.8230946100
  H        17.5678420800       16.5931280700       21.6185368200
  H        17.2892070100       21.0105739300       20.1236747300
  H        18.3785388700       21.9259226700       20.7875920100
  H        17.0507117300       17.4596555900       19.7123276400
  H        15.8577000000       18.0600670200       20.4449777800
  H        22.2774810800       21.3120815200       22.2199821300
  H        22.2191292300       22.8478912700       21.7708456500
  H        18.0826037300       19.7480594600       23.1467251200
  H        17.8974548200       21.1643939600       23.4444238900
  H        22.3641688900       15.7069754000       18.4641675600
  H        22.4440946400       17.1057356100       19.3119231500
  H        20.9754687100       18.5131024300       23.5253874400
  H        21.9344241200       17.2952015400       23.0698226600
  H        18.9139863500       17.7404545200       22.3147534700
  H        19.6038901800       19.1228837300       21.7607534700
  H        16.4957128300       20.0675276800       21.8828489900
  H        15.1518184100       20.2425326500       20.9186508500
  H        22.7702238700       19.1542489000       23.1823619200
  H        24.1309735400       20.0636161700       22.9066990700
  H        19.4879573900       20.2498806000       19.8780016400
  H        19.6823454500       18.8009015500       19.2540126100
  H        20.5325134000       16.2621014700       21.9864642000
  H        21.5951662600       15.9251789700       21.0404220600
  H        18.9860458300       23.5224401900       22.1320039000
  H        20.0876789700       22.3850383000       22.0519475200
  H        20.2028167300       16.6909645800       18.6120658100
  O        19.2324789800       16.9738906400       18.4461470000
  O        22.7555327800       18.6200070000       20.0775856600
  O        18.1648722400       16.2198361500       22.3751807900
  O        18.1051926200       21.5442482300       19.9127490600
  O        16.3588571100       17.1919701600       20.3164254300
  O        21.7350747200       22.0354114400       21.7537053500
  O        17.3218575200       20.4153207000       23.2870273800
  O        21.8612166100       16.2629431200       19.1235808000
  O        21.9259673200       18.0964346800       23.6875465900
  O        19.3698191400       18.6183322200       22.5780202700
  O        16.0375799600       19.8882022700       20.9778107700
  O        23.2160862600       19.9563864500       22.6041804300
  O        20.0531230800       19.4086616500       20.0016491200
  O        21.4918094000       16.0158410700       22.0049193200
  O        19.0732957000       22.5161980900       22.2805251800
      45
 i =        1, time =        0.000, E =      -258.3150540839
  H        19.6035142400       17.0450373300       17.2189806900
  H        21.7601356600       18.8879388800       20.4844565300
  H        22.9218747700       19.0321047200       21.3863940400
  H        17.2369270800       15.9591066900       22.3197764800
  H        17.7880865800       16.5499197300       20.8835292100
  H        17.3899699200       21.1365877300       19.8733421500
  H        18.1946822800       21.9926999500       20.6319129800
  H        18.0679989800       17.6661840400       19.0035027300
  H        16.9652365800       18.5716281100       19.7722131000
  H        22.2204283900       21.4939031200       22.0303414300
  H        21.4688434300       21.6257666300       20.6898844400
  H        17.6688277700       19.4736377400       23.0199651600
  H        17.1611285900       20.8720344800       23.1894914500
  H        21.3498475000       15.3778169800       20.5925629100
  H        22.0697089700       16.4588535400       19.8404860100
  H        21.1386821500       18.4621385300       24.1211970500
  H        22.3423602300       17.5157091200       24.1470920700
  H        18.7024159500       17.6548755500       22.3960496500
  H        19.7517662200       18.8831300100       21.9107418800
  H        16.1020542000       19.9383697100       21.4733264700
  H        15.0311795200       20.0671653200       20.2490751100
  H        22.9152033200       19.3630170100       23.2049317400
  H        24.2180813400       20.1008943600       22.7473770500
  H        19.6743259200       20.4585630100       19.8859937000
  H        19.8930930700       18.9692871800       19.3249474000
  H        20.7037578900       16.2359403700       22.5381341700
  H        21.8821034800       16.8850580200       21.9010760700
  H        18.9167276600       23.0909126700       22.7128372700
  H        19.7782281100       21.9512773200       22.3858896700
  H        20.0953854500       16.6892284100       18.6825705500
  O        19.6313186200       17.3740864800       18.1413890200
  O        22.5050160900       18.3178487200       20.7761760200
  O        18.0190326000       16.1525045400       21.7751928900
  O        18.2160011800       21.6383444200       19.6896982000
  O        17.2825368300       17.6442178100       19.5884560700
  O        21.5997554100       22.0401514200       21.5255741500
  O        16.8097157700       19.9686724500       23.0183269700
  O        21.3723343900       15.7652050100       19.6713295200
  O        22.0962645600       18.4617023600       24.3112644100
  O        19.1973243700       18.4882533600       22.6576900000
  O        16.0104485000       20.0147315900       20.4100105900
  O        23.2394823200       20.1064584900       22.5974158300
  O        20.2845136600       19.6357868200       19.9978338100
  O        21.6893131900       16.1091581500       22.4976252000
  O        18.8186140400       22.1235628000       22.6489467600
      45
 i =        1, time =        0.000, E =      -258.2684293439
  H        19.1562194100       18.5253902400       17.8379758300
  H        21.8695152600       19.3866550200       19.4112071600
  H        23.3734879900       18.7501213000       19.3319718600
  H        17.3746655200       16.3561711400       23.5146466900
  H        17.5351807500       16.7809801300       21.9748629200
  H        17.4472249800       21.1688906000       20.0240760600
  H        18.7418634300       22.0943642700       20.0369187200
  H        17.8578195700       17.6507921100       19.7101083000
  H        16.8111688600       18.4575442300       20.6715361500
  H        22.4079717600       20.5307095500       21.5378025000
  H        21.8719858100       21.0602908000       20.2005882400
  H        18.3950363500       19.7933673700       23.4182148200
  H        17.9445141000       21.0906782100       24.2137676800
  H        21.5126000400       16.0876301300       19.9962230200
  H        22.2105320700       16.9063946900       18.8928393900
  H        20.6550129500       18.3314243900       23.6609289600
  H        21.6417441800       17.2359156400       23.9956043600
  H        19.0612843600       17.7428940200       22.5465099700
  H        19.6793471900       19.0072687200       21.8327868200
  H        16.5279512200       20.5101378300       22.1027634700
  H        15.2681439000       20.8937059700       21.2677923100
  H        22.2677487800       18.1585274500       21.5778283600
  H        23.1126462500       18.4635704600       22.7487241900
  H        19.2684487500       20.1593311600       20.1781940000
  H        19.6226912000       18.6468197700       19.8428800400
  H        19.5718827700       15.5076491100       22.8696337500
  H        20.7276221500       15.4332026200       23.9003443900
  H        19.3142991400       22.3123742100       22.3915452900
  H        20.7435908400       22.4748595200       21.8839993300
  H        19.9303429600       17.1603730100       18.4263649800
  O        19.1879379800       17.7844398300       18.5254036500
  O        22.5275908300       18.8813991700       18.8463463400
  O        17.9905627800       16.3195142700       22.7710378900
  O        18.3295700100       21.3414251200       19.4717017200
  O        17.3275443700       17.6268063900       20.5488022800
  O        22.1870712000       21.3277657300       21.0987228700
  O        17.6611063600       20.5140470500       23.5176480300
  O        21.4268271800       16.3992051600       19.0689816400
  O        21.3034962700       18.0872457700       24.4538325200
  O        19.4170290200       18.6471044100       22.7385984300
  O        16.1554177300       20.4300387100       21.1797594100
  O        22.9806195700       18.7494614500       21.8281499800
  O        19.9487499000       19.4062246500       20.4018510000
  O        20.5848890100       15.5299802500       22.9262437300
  O        19.8131957500       22.9050706700       21.8428691900
      45
 i =        1, time =        0.000, E =      -258.2734699198
  H        19.2801707000       17.6995582100       17.2481139100
  H        22.9820674200       18.3918842600       21.1320447600
  H        23.6293301200       18.1296364300       19.8075454500
  H        17.2974441900       15.8159887100       22.3097024400
  H        17.2262071200       17.1933287400       21.7767959800
  H        18.8684888000       22.5220573600       18.7824254100
  H        19.2352787700       22.6384778000       20.2921111300
  H        17.6657536000       18.0310810300       19.6517056500
  H        16.6983367500       18.9131394900       20.6098732000
  H        21.8422578400       20.5642283700       22.0605501400
  H        20.7823428200       20.3706297300       20.9846202000
  H        18.7127081300       20.1317096100       22.7768084200
  H        18.3594193100       21.3307888300       22.0844328300
  H        20.8208233700       15.3696013200       19.9495055000
  H        21.7675098400       16.5917690500       19.6211317400
  H        20.9712207000       17.9204146600       23.6526624900
  H        21.7454739300       17.0016193700       24.5926312500
  H        18.8716842300       17.6782715500       22.6896024600
  H        19.7389937800       18.6661437000       21.6326321000
  H        16.4736373200       20.4751408300       21.7449313000
  H        15.9050295800       20.9240387400       20.3526693700
  H        22.8439458000       18.7601590700       23.5199217400
  H        24.2226277700       19.0884732800       22.9740299300
  H        19.2396754800       20.4812706900       19.7188544300
  H        19.6797844900       19.0772702800       19.2386615000
  H        20.7526170100       14.2338091700       22.5026193700
  H        21.2407732400       15.6174422300       21.9373573900
  H        20.4426206800       24.3297622200       22.1020048800
  H        20.8215902600       22.8482309100       22.1746757900
  H        19.9962720200       17.0697616900       18.5079991500
  O        19.2552672700       17.6396544400       18.2167636000
  O        23.0907606300       17.7227044400       20.4728426900
  O        17.4517151500       16.7241062900       22.6306754000
  O        18.6393654000       22.1723775900       19.6643612400
  O        16.9452067200       18.0032977000       20.2878606200
  O        21.0334478100       21.0046159400       21.7543454300
  O        17.9544481500       20.7855074000       22.7864366100
  O        21.1457826700       15.9362371200       19.2143796600
  O        21.7191670700       17.9262634500       24.3323874000
  O        19.6558598500       18.3183801000       22.5749207300
  O        15.7829023400       20.3092682000       21.0886830100
  O        23.3411613500       19.2667951600       22.6961654300
  O        19.7385527200       19.6888776500       19.9986320900
  O        20.5993335600       14.9356192300       21.7868471800
  O        20.0972856500       23.4411971100       21.9395729000
      45
 i =        1, time =        0.000, E =      -258.2905433177
  H        19.4443378900       18.1889458500       17.2569516700
  H        21.8998945900       19.0447204800       20.4091277600
  H        23.0883226700       19.1915507000       21.5801217600
  H        17.7755176300       15.7736559500       21.9191365700
  H        17.4054625700       17.0211074300       21.1688349100
  H        18.4660599500       21.1541534900       18.3344406400
  H        17.2958879000       20.9897729300       19.2534496700
  H        17.4945507500       17.2629271700       18.8265969300
  H        16.6190108600       18.0856638300       19.7833746800
  H        22.6761874600       21.5299098500       22.1532510200
  H        22.3597810500       22.0121859800       20.7719006600
  H        18.2059287100       20.9622530700       22.6008330000
  H        18.0053884600       19.6034142700       23.2627457100
  H        20.9977603400       15.7045436400       20.0685739800
  H        21.3919358600       15.3601568700       18.5962217800
  H        20.9529965000       18.6173406100       24.2918786100
  H        21.8533019200       18.1317592500       25.6112416100
  H        19.2008261300       17.6146066900       22.7200913200
  H        19.9363790600       18.7172009300       21.9841640100
  H        16.3797645300       20.0406786500       21.5916337000
  H        15.0002642100       19.4190149800       21.3904880500
  H        22.7411919700       19.6189563500       23.8584206100
  H        24.0469421200       20.4180172600       23.7581801700
  H        19.3078159600       19.9786492300       20.2130779300
  H        19.4819096900       18.5259075800       19.5911170900
  H        21.1379114700       15.9023614300       22.2031077600
  H        22.1726305300       16.9051045000       21.4704831200
  H        19.3222670200       23.0878286900       22.1046094800
  H        20.4346600900       22.0738488600       22.2390708300
  H        19.7509519500       16.8649176000       18.1805814100
  O        19.0900040000       17.6058224100       17.9995095300
  O        22.6250427700       18.6299507900       20.8848258300
  O        17.8825885500       16.7633469600       22.0025758300
  O        18.2313359300       21.2875857500       19.2324061800
  O        16.9616538400       17.1610015700       19.6473676400
  O        21.9936284900       22.0519762700       21.6751263800
  O        17.4729837100       20.2766516400       22.7784042200
  O        20.6117018900       15.6275271500       19.1133664800
  O        21.6582067400       18.9050845500       25.0325971600
  O        19.8494565000       18.3600845100       22.8787535400
  O        15.7033990400       19.7940449600       20.8395738000
  O        23.3374720200       20.0509763500       23.1907698800
  O        19.9402055000       19.2073085900       20.1683645000
  O        21.8107949300       16.0064160100       21.4547621900
  O        19.4876947400       22.1511901300       22.4982673700
      45
 i =        1, time =        0.000, E =      -258.2570663882
  H        19.7107944800       16.5487467300       18.1709991100
  H        21.4789288000       18.6162341900       19.6141024800
  H        22.6955825300       18.6758928400       20.6258807100
  H        16.9695378400       16.6963144000       21.8740696500
  H        16.8465564300       15.2747000500       21.5998000100
  H        18.0801990000       21.8036536500       20.4509031900
  H        19.3889875200       22.4333147000       20.9974957200
  H        16.8976439200       18.2504624200       20.1765276300
  H        15.6937605600       18.3959721300       21.1096368300
  H        22.4013330300       20.9060569600       22.4344086900
  H        22.1780024300       21.6945216300       21.1936784500
  H        17.9396869700       21.9640405000       23.4988183900
  H        16.4493313600       22.3245574500       23.9215060800
  H        22.1490341500       15.0090668900       19.0713882500
  H        22.2873914500       16.3825085200       18.5808810400
  H        21.0690407400       19.3206007300       24.5337378500
  H        20.6434130000       18.1741693500       23.6167408200
  H        19.0901652700       16.7819306100       22.3324119900
  H        19.3412386700       18.1848064700       21.6995548400
  H        16.6324043600       21.1356492900       21.7072305400
  H        15.8398707800       21.6561858400       20.5160776300
  H        22.4906762100       19.0468885600       23.2811858300
  H        24.0448797600       19.1544175600       22.8390280400
  H        19.4099066600       20.3939475000       19.7928224000
  H        19.2055187100       19.1735666800       18.8654635700
  H        21.4214193400       15.7288789000       22.0590671000
  H        22.5255482700       16.5041292700       21.2627694900
  H        19.7577684200       22.3998138800       24.3243769500
  H        20.4002245400       22.1141856800       22.9145057600
  H        18.4810714000       16.4411781600       18.8667056700
  O        18.8591684900       16.9362372600       18.0970120300
  O        22.4462625800       18.2820635800       19.7045819500
  O        17.4002574700       15.8479669800       22.1249324400
  O        18.9785703300       22.0827787600       20.1370648400
  O        16.4821416900       17.8666553100       20.9716617300
  O        21.8774641900       21.7038357100       22.1022464500
  O        16.9592261600       21.8003847200       23.2811035300
  O        21.8442488500       15.5598628300       18.3529061400
  O        21.3849764400       18.4516407200       24.2889263100
  O        19.7376742100       17.4758742800       22.2702600100
  O        16.5734062600       21.0109903700       20.7047656500
  O        23.1580786800       19.3554870000       22.5479706800
  O        19.4976795400       19.4271911400       19.7656087500
  O        22.1483537000       15.5719897900       21.3861807500
  O        19.5182063300       22.2927258900       23.3629323100
      45
 i =        1, time =        0.000, E =      -258.3044962476
  H        19.6953650400       17.6799178800       17.8762243700
  H        21.5048004900       19.1448861300       19.7271122000
  H        22.8719561400       19.1210939400       20.5231275400
  H        17.8255609800       15.9146808000       22.7418662700
  H        17.9025950100       16.6591990600       21.3243516100
  H        17.3295899700       21.0467897500       19.7294532800
  H        18.0681816500       22.3222483700       20.3608868800
  H        17.7843327100       17.1771827300       19.4261265200
  H        16.5966400500       17.8657254900       20.1019263500
  H        22.0983939000       21.3940567400       22.1027304100
  H        21.5819380200       22.1951461900       21.0137634000
  H        17.6690259300       19.6234231400       23.4096785600
  H        17.2652162600       21.0306321800       22.8170823400
  H        22.2544748900       15.7331841300       18.9236091000
  H        22.1932455500       17.2715702900       19.5150834400
  H        22.1911872300       18.0892215100       24.3526797600
  H        22.1060478400       17.1201783900       22.9487008700
  H        19.2065179700       17.9055624700       22.8975954000
  H        19.5485531700       19.2853814900       22.3150450700
  H        16.3405773400       19.8429720400       21.4622540600
  H        15.1147635200       19.5975909400       20.3053924100
  H        22.9355459300       18.9242167200       22.5798638200
  H        24.1226684100       19.8412378900       22.6403165400
  H        19.5892138600       20.4968196400       20.2419021400
  H        19.4442013900       19.0326443900       19.8439644400
  H        20.0221885500       16.0319407900       22.2833951300
  H        21.4885608800       15.6655318800       21.6352468100
  H        18.8733663600       23.3779572400       23.1508853800
  H        19.6855075700       22.3870283500       22.3331334800
  H        20.4357730300       16.9354673000       19.0180030500
  O        19.4273041000       17.1936568500       18.6643492400
  O        22.3765455200       18.8128431200       19.6499473800
  O        18.4390790900       16.4005386300       22.1607158700
  O        18.2365726000       21.4741254400       19.8245321000
  O        16.9869120800       16.9966280400       19.9641054800
  O        21.4236340100       22.0823529800       21.9638856500
  O        16.8890856200       20.1175021300       22.9233565300
  O        21.7991997800       16.3169378700       19.5813135800
  O        22.7516857700       17.7283883900       23.5394720200
  O        19.2904824300       18.8506289300       23.1658708700
  O        16.0896511000       19.7322892100       20.4364144900
  O        23.2583849300       19.7972582300       22.1340899500
  O        19.9991518100       19.6204645800       20.4102088800
  O        21.0200498200       16.0833075400       22.4054465500
  O        18.7377249200       22.6145650700       22.5472755900
      45
 i =        1, time =        0.000, E =      -258.2931027709
  H        18.6347299600       17.7853867500       17.9950580600
  H        21.3873237900       18.7694429900       19.6358531200
  H        22.8951898000       18.8696799300       19.5880540400
  H        16.1485961100       17.1516997700       23.3583538500
  H        16.8985138500       17.1551349900       21.8205437800
  H        17.8891711200       21.6252949400       20.3729866600
  H        19.0025848500       21.9482724200       21.4786191000
  H        17.3672654200       17.2415807900       19.7282054900
  H        16.4838205500       18.3819691000       20.3472498100
  H        22.3628505000       21.0828067900       21.8825644700
  H        21.3125007800       21.7507915600       20.9495410800
  H        17.2427095600       19.3375916400       22.9901591800
  H        17.8350933900       20.8737563700       23.2602316600
  H        21.2788924600       15.4705745500       19.3171619500
  H        21.8313081700       16.6985681800       18.6452101800
  H        21.8314482600       18.0768421500       23.6174652500
  H        23.0133868300       17.1522430300       23.3593231300
  H        19.4571622500       17.6573965900       23.2946745800
  H        20.1666168400       18.4906333500       22.0607366200
  H        16.5072479800       20.2318151000       21.6862248900
  H        15.5259566700       20.7678205600       20.5952991100
  H        23.1598051500       18.9922577800       22.1043355200
  H        24.0400080100       20.2206834500       21.4615827400
  H        19.5493362000       20.1979868300       20.6192783600
  H        19.2281981300       18.7036521200       20.1043024100
  H        21.0590885600       16.8273463400       21.7667688700
  H        21.1290482600       15.6568475800       22.5707616800
  H        18.9515785700       22.9139513300       23.6635717400
  H        20.3049194900       22.3400466100       23.0983731700
  H        19.7054136300       16.7663101100       18.6008988400
  O        18.7693691700       17.2007655000       18.7962265100
  O        22.1608386000       18.4616020600       19.1061189900
  O        16.9903481100       17.3594073200       22.8475317900
  O        18.8869741400       21.6436329700       20.5082129900
  O        16.6057945700       17.3893374800       20.3359078200
  O        21.7185071500       21.8792828500       21.8796741800
  O        17.0521739500       20.3025376100       23.1549598600
  O        21.0425544000       16.0536773600       18.5639795100
  O        22.8856494800       18.1148050300       23.4949218800
  O        20.2617206500       18.1822065500       23.0288020200
  O        16.3152523700       20.1936359400       20.7336626700
  O        23.2571486400       19.6630309700       21.3295389000
  O        19.9978175700       19.2484677300       20.4859461800
  O        21.5121772000       15.9440152300       21.7194934900
  O        19.3665557700       22.1583122900       23.2365627700
      45
 i =        1, time =        0.000, E =      -258.2966468835
  H        19.9123995800       16.9037680900       18.9799599900
  H        22.3343722400       19.1527675500       19.6714454200
  H        23.4349849100       18.6115886100       20.7164222100
  H        17.9286192800       15.8586491700       23.0713354100
  H        17.5298129900       16.3274395600       21.5158832000
  H        18.1717877000       22.3868830200       19.5422202100
  H        19.0092518700       22.0033962200       20.7826383200
  H        16.2358243200       16.5634792400       19.5830918100
  H        16.4680849100       18.0858270100       20.2687800800
  H        21.8547676500       20.7290639800       22.3117931000
  H        21.2924757600       20.9515511000       20.9445908200
  H        17.1498500800       20.3488230000       23.0901347100
  H        17.9382599600       21.6207622700       22.7248232400
  H        21.7409464500       15.6177969700       19.2847900300
  H        22.1765780200       17.1808377700       19.7190633000
  H        20.5373215600       18.2372558000       23.7720025200
  H        21.5054554100       17.0993271400       23.8785066900
  H        18.7998780400       17.8568552400       22.4692162300
  H        19.2234368600       19.3678420000       22.0579767900
  H        16.7796794400       20.3148498400       20.7346340200
  H        17.1059964800       19.9095107900       19.2278570100
  H        22.4164715500       18.9129584200       23.5402748800
  H        23.5256974500       20.0531965400       23.4110803900
  H        20.0941287700       20.5209293400       19.2645149000
  H        20.1732940700       18.9805224800       19.3333918000
  H        20.1783245300       15.7664466600       22.4651896200
  H        21.4801617100       15.8048653400       21.5761484900
  H        19.4660518000       23.3085422900       22.8007427700
  H        20.1624228100       21.9870047900       22.3156097000
  H        18.3687685500       16.9141969000       19.2773771900
  O        19.0701960300       17.3655609800       18.7419711200
  O        23.0693148200       18.4603955000       19.8164035000
  O        18.2914943500       16.1980321100       22.2147359800
  O        18.8269581900       21.7273728500       19.8454923100
  O        16.6648195800       16.9902441700       20.3978872400
  O        21.3768807300       21.4150815400       21.8706269000
  O        17.0890442600       21.1274089400       22.4730576300
  O        21.3868601400       16.5312221900       19.5460595600
  O        21.4553100800       18.0538242700       24.1812444500
  O        18.9601617100       18.8316183000       22.8386733100
  O        16.5253678800       19.7321966900       19.9907541700
  O        22.9393984600       19.5513104500       22.8123501100
  O        20.6812339300       19.7721234500       19.5850016700
  O        21.1608589100       15.7326306300       22.5441414400
  O        19.2748731800       22.4166729300       22.4665859600
      45