      51
 i =        1, time =        0.000, E =      -292.7310182122
  H        17.6024654000       19.2650395300       20.4969770700
  H        20.2509912300       22.2946834400       19.4810976100
  H        19.3140895100       22.5483489300       18.2350684200
  H        20.7663126200       15.5973283600       22.0981043700
  H        20.0363793600       16.9752972100       22.3629286700
  H        22.2320528700       24.0382362800       23.1820624900
  H        21.1613646200       25.2393346900       23.3707030300
  H        18.2121742000       18.3578535300       22.5087046800
  H        19.4798931900       18.7928521700       23.5395585200
  H        23.5510186400       20.6992737500       18.8826448600
  H        23.9201542200       19.5653310000       19.6657849800
  H        21.7729688700       19.8914463200       24.3324416900
  H        22.0221085400       21.3152215000       24.7869956400
  H        18.8431705300       17.0323135900       17.3573010200
  H        18.0974815100       17.6469326000       16.0997099700
  H        22.0264541400       17.2582520400       20.2624949800
  H        21.9554423700       17.6335587200       18.7697313300
  H        22.5489392000       17.8595658000       22.9621927000
  H        23.0394908200       19.3140635100       22.5855726700
  H        20.1978912000       20.7701198900       23.8490281400
  H        18.9985920100       21.5018635500       23.2819278400
  H        22.0265150400       19.5959633500       17.4987190600
  H        21.2076205600       20.8057790700       17.7573270400
  H        20.9754413700       23.3218906500       21.7947982700
  H        20.1846333300       21.8245854700       21.7911115000
  H        20.1981720400       16.2932720400       19.7097771300
  H        19.5471566200       17.5812480600       19.1783662200
  H        24.0646403900       22.6174801200       24.5901047300
  H        23.4120490700       22.1440414700       23.2618216100
  H        22.1914284000       21.6188344600       21.7516123200
  H        23.5849646100       21.2266034100       21.0505400800
  H        18.1578781500       19.0426637900       18.4066768000
  H        18.9996422800       20.2418711900       19.1348784400
  H        16.3128128900       18.8627989100       21.3796943300
  O        17.1998811600       19.2039626100       21.4290965100
  O        19.7789518700       21.8465367200       18.7285371900
  O        20.7626507900       16.5198318100       21.7963758600
  O        21.4986881400       24.6178869600       22.7273263200
  O        18.9803370600       18.0054530100       23.1197645000
  O        24.2038959400       20.4973219000       19.5422151200
  O        21.4253692100       20.5443631400       24.9707340400
  O        18.1895492100       17.7086872300       17.1226164100
  O        22.3764913500       17.9229765700       19.6271248400
  O        22.7284983800       18.7388514200       23.3239690900
  O        19.7610454800       20.9903126600       22.9638004300
  O        22.1265123000       20.5948767100       17.5201071200
  O        20.7059982500       22.4910613100       21.2341596100
  O        19.9438926800       16.7639041300       18.8959866700
  O        23.1915836000       22.7814573100       24.0654729600
  O        23.1278478600       21.2493963700       22.0002788300
  O        18.5666361600       19.3526215500       19.2643832900
      51
 i =        1, time =        0.000, E =      -292.7314860747
  H        17.2410583900       19.4554446900       20.3047340800
  H        20.2502500800       22.2568936400       19.6713342300
  H        19.6548347400       22.6984045600       18.3725550000
  H        21.3119692300       15.9246242200       21.7856335600
  H        20.3541998200       17.1866723900       21.9819862200
  H        22.3540742500       24.1942069000       23.2013809000
  H        20.8986707900       24.1539895500       23.8612733900
  H        18.2609283400       18.1047480300       22.0217200000
  H        19.3868211200       18.6851110200       22.8755576800
  H        23.5499886800       20.5668254400       19.4056922500
  H        23.7965535700       19.1480581000       19.9840215900
  H        21.7839149500       19.7465267400       24.7190145100
  H        22.1237412600       21.2355664400       25.1802140500
  H        18.5132847000       17.0232686200       17.4827920400
  H        18.5428204100       17.0918393500       15.8708024300
  H        22.0721077100       17.4114629500       19.7945620000
  H        22.8905876200       17.5692251700       18.4191023200
  H        22.1547301700       18.0417253800       23.1439206700
  H        22.7149533400       19.4932411400       22.9321004300
  H        20.0067404200       21.1031507000       23.9168976300
  H        18.5341056200       20.9807317700       23.1536405400
  H        22.1863266200       19.6530720900       18.0771564000
  H        21.5991545600       21.0813586600       18.2632530700
  H        20.6543029600       23.3771332000       21.6650281500
  H        20.0254732200       21.9215912300       21.8959829900
  H        19.7836169400       16.7630237400       19.9492536600
  H        19.4275454700       17.9822680100       19.1042659800
  H        24.4176745300       22.9266790100       24.1998053700
  H        23.1727760600       22.2849529100       23.3858009100
  H        22.0753191500       21.5987073600       21.6095705500
  H        23.4807332300       20.7551553800       21.4499007000
  H        18.2370662900       19.1479110500       18.1472720700
  H        19.1769652000       20.2997482600       18.5952476800
  H        16.0614857200       19.5086634200       21.3077741300
  O        17.0320269900       19.6729007700       21.2329630800
  O        19.9183459900       21.8480789500       18.8510927200
  O        21.1228241500       16.8064861600       21.4822640100
  O        21.3643150000       24.3627691100       22.9904016400
  O        19.0731014800       17.8319345800       22.4996429700
  O        24.0505868400       20.1148844200       20.1610822000
  O        21.3691999900       20.6285958000       25.1330850200
  O        18.1871784000       17.4934870700       16.6378250300
  O        22.8792895400       17.8066607700       19.3877366400
  O        22.5642221600       18.7958832200       23.6297938500
  O        19.5200020700       20.8950616300       23.0725510200
  O        22.4420258400       20.6343739600       17.8725276500
  O        20.5939710500       22.4852408500       21.1887823600
  O        19.4981708200       16.9882705100       19.0177063300
  O        23.4335741500       22.9180005200       24.1114307500
  O        22.7432058800       21.0689036300       22.1545511800
  O        18.7882396000       19.4402910300       18.8888054100
      51
 i =        1, time =        0.000, E =      -292.7288394510
  H        17.8478117600       19.4410351700       20.5442876900
  H        20.1929125900       22.2428170800       19.7566820300
  H        19.4609100200       22.8990224900       18.4303675400
  H        20.7604610200       16.1586447400       22.4646210800
  H        19.9561963000       17.3104912800       22.3823448700
  H        22.0759227100       24.2480254200       23.3448793800
  H        20.5793322700       24.8251979600       23.0315627100
  H        17.9782348200       18.0247835400       22.2368628800
  H        18.9339822500       18.8993110700       23.2130450800
  H        23.6708251900       20.3913855200       19.2082931400
  H        24.7181723900       19.2919785300       19.3624335300
  H        21.7736191300       19.8916967100       24.7363008700
  H        21.9004211700       21.4392664900       24.6448592600
  H        18.6052190000       17.1814714800       17.4871049400
  H        18.7674665900       17.8265562200       16.0091867100
  H        22.5470601200       17.4473331500       20.4081338300
  H        21.8984399800       17.0678883200       19.0537260900
  H        22.0546151900       18.4036783200       22.7309703200
  H        22.9505250900       19.6772005300       22.7094988200
  H        20.1223278900       20.7016210000       23.9820694900
  H        18.6355623900       20.9071727200       23.3738932100
  H        21.7490875200       19.7725672400       18.4454981200
  H        21.4139192400       21.2116325600       18.2862142900
  H        20.9174908600       23.1046655400       21.7693929500
  H        20.1357479900       21.8073184000       22.0721036200
  H        20.0328061000       16.2661766800       19.8572482000
  H        19.4374011500       17.4645590600       19.2671760600
  H        23.7941450100       22.8050145400       24.6134355200
  H        23.5213514000       22.3632902700       23.2047557900
  H        22.4206968900       21.6085557600       21.6615345300
  H        23.8220240500       21.1783656700       21.1478953300
  H        18.4641023200       19.3176321200       18.0880863100
  H        19.3929106000       20.4663120600       18.5991234200
  H        16.7769292600       18.3718282400       20.4439214400
  O        17.1509244400       19.0047281900       21.1099875900
  O        19.9694135600       22.1397195100       18.7557752900
  O        20.8131198400       16.9834151100       21.9458474100
  O        21.4230300300       24.7123558100       22.6900031900
  O        18.6032999200       17.9409711500       23.0508153100
  O        24.4735796100       20.1983981800       19.6874734900
  O        21.3277232600       20.7493290300       25.0690883200
  O        18.1543631400       17.6176278800       16.7053954300
  O        22.5855396100       17.6316118700       19.4203876800
  O        22.5302799300       19.0296079400       23.2830117500
  O        19.5518258100       20.7712141100       23.1627377300
  O        22.2108158200       20.6352410200       18.2263393100
  O        20.7598047900       22.1795482000       21.3622539900
  O        19.6382199200       16.5539415600       19.0037619800
  O        23.0628153100       22.7650882600       23.9824323300
  O        23.3077754700       21.2580188700       21.9716314200
  O        18.9790741800       19.5805253300       18.8324858600
      51
 i =        1, time =        0.000, E =      -292.7260952550
  H        17.8126933300       19.4750113700       20.3422813400
  H        19.9428510800       22.1994479200       19.7045224900
  H        18.7419032100       22.4048134600       18.8686395600
  H        21.4394036300       15.8711704500       22.3157400300
  H        20.1941318000       16.9700692200       22.5054561500
  H        22.2422043300       24.4773415000       22.3053394300
  H        21.2502933900       24.4374240500       23.4245298900
  H        18.5943880800       18.2511521000       22.2218342400
  H        19.5215814500       18.7484615400       23.4385207100
  H        23.6455362000       20.3026819700       19.1145708700
  H        24.4779827700       19.3083946600       19.8494088000
  H        21.9720081100       20.2104505800       24.5962165000
  H        22.2885345500       21.7153026700       24.4523472200
  H        18.1772122600       17.2881781500       17.8681606500
  H        18.2288785600       17.0868754800       16.3063032200
  H        22.1937264700       17.4220188400       19.7691623200
  H        22.6112174100       17.3334918700       18.2755822200
  H        22.2051329300       17.9587026600       23.1746444400
  H        23.0217191200       19.1695217700       23.1989383100
  H        20.0899122500       20.9030923500       24.0180916200
  H        18.6055194800       21.0420737800       23.5629422500
  H        21.9910244700       19.3543305800       18.4923431500
  H        21.3850961900       20.7619508900       18.3466024400
  H        20.7811281800       23.0231393600       21.7279793700
  H        20.2395916300       21.5639205900       21.9402511500
  H        19.9107253000       16.4415831200       20.0640793700
  H        19.5087509100       17.8631395400       19.4403002100
  H        24.1327549000       22.6987473200       24.6431038800
  H        23.5631560000       22.2316725400       23.1518448100
  H        22.0982111400       21.6528183400       21.4967075100
  H        23.5425549900       20.9325199200       21.0454825500
  H        18.6238271400       19.2092050700       17.8597515600
  H        19.1061759700       20.3965809800       18.8256088600
  H        17.3307169800       20.2517345900       21.7430876900
  O        17.3586971100       19.3835793800       21.2535875100
  O        19.6332275400       21.9975823700       18.7749540300
  O        20.8791401800       16.5601850000       21.8842057600
  O        21.2801261400       24.6140914600       22.4637825100
  O        19.1844714000       17.9602973000       22.9618605300
  O        24.3649949900       20.2504614600       19.8186260000
  O        21.5640261000       21.1233519500       24.7506118300
  O        17.7837772200       17.6039304800       17.0098591900
  O        22.8303891500       17.7613915700       19.1271723900
  O        22.4619721200       18.6739333500       23.8532721200
  O        19.5131762900       20.8393467200       23.1929337700
  O        22.1818578900       20.2200445100       18.0457963800
  O        20.5289924900       22.1822434200       21.2123905900
  O        19.6813274900       16.9225059500       19.2211769200
  O        23.4639662800       22.8842231500       23.9487183100
  O        23.0062190400       21.3518995800       21.8487216600
  O        18.6890341400       19.4888995600       18.7958120200
      51
 i =        1, time =        0.000, E =      -292.7226010180
  H        17.5671363100       19.6779751900       20.0821834200
  H        20.1180233700       22.2351944300       19.6541669900
  H        19.7127296700       22.9081036700       18.1993867400
  H        20.8507839100       16.1079454600       22.3319917200
  H        20.4091195300       17.4755726500       22.0495257400
  H        22.4737804500       23.7835143100       23.4606600300
  H        22.2471436400       25.0596035000       22.6389753500
  H        18.0425043400       18.3847236800       22.2738029400
  H        18.9070621000       19.1830027200       23.2168271300
  H        23.8904310700       20.1874998800       19.3123938200
  H        23.8249580900       18.8800964300       20.0609775600
  H        22.1002759800       19.6138526800       24.5887146600
  H        21.9930358200       21.1849328600       24.9038246500
  H        17.8468666400       17.0267913900       17.6590058600
  H        17.8910976200       17.2400956600       16.1815597200
  H        22.1181705800       17.5668820700       20.4388182100
  H        21.8972788400       17.5815781500       18.8186366200
  H        22.2831678700       18.2275566500       22.6946704800
  H        22.7052303700       19.7821225300       22.8327156600
  H        20.5042775100       20.6481286500       23.8771882200
  H        19.0933587900       21.6407275600       23.5031863000
  H        21.8108889200       19.8537653400       18.8930964700
  H        21.3127419600       21.2366529100       18.4650426600
  H        21.2590274200       23.0582491000       21.6628718200
  H        20.3616461900       21.7180572100       21.9536995500
  H        20.1974399900       16.6972299900       19.6173090900
  H        19.6878161800       17.9373089500       18.8644028500
  H        23.9616887100       22.8334684700       24.5974224900
  H        23.0413232000       22.1730658900       23.5229183100
  H        22.3426871800       21.5562017700       21.6779059700
  H        23.8022616000       20.6753892200       21.3404834600
  H        18.2952573400       19.0469030400       17.6801489400
  H        19.1004141700       20.3418606900       18.3205718300
  H        16.2970162100       20.2653264400       20.6731446900
  O        17.0226064500       19.6570548000       20.8772893200
  O        19.6253651200       22.1568666600       18.8140285700
  O        21.1013551000       16.7996717600       21.7217190600
  O        21.8629383600       24.1998396200       22.6964771300
  O        18.8332073900       18.2629008800       22.9040281600
  O        24.3564704500       19.7670518300       20.0733701400
  O        21.4933109300       20.3401978900       25.0378854900
  O        17.4541612000       17.5912943700       16.9992843100
  O        22.4774585700       17.9092252800       19.5606760200
  O        22.7111029300       18.9215458300       23.3537524100
  O        19.7398686600       20.8979769000       23.1831585300
  O        21.8971383000       20.4902912900       18.1745494500
  O        20.9051198100       22.2151402300       21.2586047300
  O        20.0525228600       17.0467824700       18.7085664000
  O        23.0530199600       22.6971208100       24.3559519700
  O        23.2498275200       21.2166161300       22.0158647200
  O        18.6659338000       19.4699406500       18.5569382600
      51
 i =        1, time =        0.000, E =      -292.7400353364
  H        17.9035419700       19.3661629800       20.4096729800
  H        20.1884686200       22.1976061400       19.9950185300
  H        19.6585855400       22.8041162700       18.5529390000
  H        21.3230103400       16.5806022000       22.3267366800
  H        19.9248832600       17.4606262100       22.2154192900
  H        22.1432803400       24.2143618900       23.1224091200
  H        20.9904635000       25.2299729700       23.4868909400
  H        18.0919343700       18.1258691100       22.1696344100
  H        18.8597916800       18.8827395900       23.1495974300
  H        24.2035089400       20.5566065100       18.8336527200
  H        23.9746659700       19.0249408100       19.3434317900
  H        21.9774032300       19.9230989900       24.6430068400
  H        21.7439717200       21.3749721200       25.1327826100
  H        17.8515965800       16.9219354300       17.4478893100
  H        19.0581601300       17.1960962600       16.6614841900
  H        22.1406182500       17.7437520700       20.4397307500
  H        21.9986888700       17.4846723800       18.9787734200
  H        21.6773804400       18.5363262400       22.9503424400
  H        22.9356363700       19.4071591800       22.7332475300
  H        20.1026631700       20.4629635600       24.1696283100
  H        18.6783152700       21.0525573900       23.9307543400
  H        21.9796231300       20.2117248300       18.8077432200
  H        21.4695198400       21.4293326200       18.2190650300
  H        20.5098563800       23.2133584300       21.9651822300
  H        19.8852804400       21.7902233000       22.0271641900
  H        20.0419540200       16.3531052400       19.6005843600
  H        19.5362133900       17.7769519800       19.1889955700
  H        24.1095968300       23.3899187900       24.3137062700
  H        23.6595495200       22.4860564200       23.0509083200
  H        22.4105187900       21.3545306300       21.5793812600
  H        23.6531669200       20.6335545000       20.8991592700
  H        18.6028726700       19.1985952200       17.9849631000
  H        19.1508384900       20.4200829000       18.7327613400
  H        16.6421781900       18.5844327700       20.3751427300
  O        17.2079415200       19.0431644800       21.0309418200
  O        20.0465650900       21.9951614600       18.9604525700
  O        20.8378560900       17.2235043100       21.7041234800
  O        21.2178413600       24.5950896900       22.8315627500
  O        18.6864072600       17.9294090500       22.9971404300
  O        24.3604305600       19.9635137500       19.5405841300
  O        21.3586901700       20.5123018100       25.1565762400
  O        18.1508122000       17.5223985600       16.7409038300
  O        22.6580934200       17.8482753200       19.6034965700
  O        22.5913715400       18.7345960000       23.3677307600
  O        19.3876653900       20.6703143500       23.4112416500
  O        22.2223283300       20.7976612100       18.0889522200
  O        20.5067396000       22.3172264000       21.4833339100
  O        19.7815707100       16.8956014700       18.8153405800
  O        23.3924449900       23.1352851500       23.7221359400
  O        23.3378057900       20.9680417900       21.8392636000
  O        18.8115877900       19.5131976900       18.9108158600
      51
 i =        1, time =        0.000, E =      -292.7238876648
  H        17.7569962100       19.6897173400       20.5566519500
  H        19.7479433000       22.5657894100       19.5584053800
  H        19.3307107900       23.0238137600       18.0367709600
  H        21.3415889500       16.0538080700       22.0882315300
  H        20.1055539600       17.0307353300       22.1404990400
  H        22.2035982200       24.0456066100       23.3780233000
  H        21.3070287700       25.1577088700       22.8756105800
  H        18.0506754100       18.1386396200       22.3938189900
  H        19.3325557200       18.7876814300       22.9597233700
  H        24.0488940100       20.4693767700       19.1063001400
  H        23.9846002700       19.1849604600       19.7845043100
  H        21.7128285300       20.0062150100       24.9925705800
  H        21.9997837500       21.5090731100       24.9918976800
  H        18.3571100800       17.1095452400       17.5128536400
  H        17.7985753900       17.3590705200       16.1259755700
  H        21.6626461800       17.6823543800       20.2597908200
  H        22.2066718300       17.3891233600       18.7604169200
  H        22.1966760000       18.4326255300       22.8735921100
  H        22.9565087600       19.8833718900       22.9726039500
  H        20.2839092500       20.5063391700       23.6820134700
  H        19.0579659600       21.2091107700       23.5673922300
  H        22.4557346200       20.5561507400       17.1621063600
  H        21.7873870600       19.9388237200       18.3403528900
  H        20.8967205100       22.8559246000       21.7852852700
  H        20.1760980000       21.4573555500       21.6751283700
  H        19.6128697400       16.1394113800       19.7242998700
  H        19.6490184900       17.7153021000       19.3115271100
  H        24.1082495300       23.4931770500       24.2989908000
  H        23.7780085300       22.4523309700       23.1911329500
  H        22.6925941700       21.4062992900       21.4935421100
  H        24.0550316300       20.7530365600       21.3066178800
  H        18.7339410300       19.3481346000       18.1103076400
  H        19.2994718000       20.4427055900       18.9418584600
  H        16.2220368600       19.2703139000       20.6946886900
  O        17.1519977100       19.1962193500       21.1305697600
  O        19.3095384600       22.3419756500       18.6849267700
  O        20.8755290500       16.7209096900       21.5368942700
  O        21.3156979400       24.1801757400       22.9886263600
  O        18.9005240100       17.8684799100       22.8496139400
  O        24.4932176400       19.9815433700       19.8504915800
  O        21.2623507100       20.8707935700       25.2153829000
  O        17.8361670600       17.7712280600       16.9683243800
  O        22.2489918900       18.0357396200       19.5063788700
  O        22.7028930500       19.0165092300       23.4589452700
  O        19.5125207300       20.5251595100       23.0361544500
  O        22.4882074100       20.6690350900       18.1021704100
  O        20.6517293900       22.1574570400       21.0940939800
  O        19.6144205700       16.7706055300       18.9635528600
  O        23.4028928600       22.9226974000       23.9986593200
  O        23.4902029800       21.1957110100       22.0081814300
  O        19.1838316300       19.4610025200       18.9870525800
      51
 i =        1, time =        0.000, E =      -292.7366319883
  H        17.4784577800       19.0294094200       20.1988390000
  H        20.0845602100       22.4051703800       19.5478255500
  H        19.8995374500       22.9417547700       18.1011663800
  H        21.4707245300       16.1729021500       22.5902951600
  H        20.4889176100       17.2002021500       22.1378022900
  H        21.5782334300       23.9178204000       23.7395265800
  H        20.0921064800       23.8178278200       23.8751269900
  H        18.3544028000       18.2823435600       22.2014681500
  H        19.0948547700       19.2643614900       23.1204605800
  H        23.6029621800       20.9244674400       18.9682305400
  H        24.0136678000       19.5897087000       19.5214278600
  H        21.9277946200       19.7058304500       24.4122235600
  H        22.0985419100       21.2819470800       24.6414021900
  H        18.5817782700       16.6193111700       17.5431861900
  H        18.3604500900       16.8815753600       16.0987798900
  H        22.7289485600       17.6419263200       20.1584126000
  H        22.2089626500       17.3220873600       18.7977222600
  H        22.3360868100       18.4853243000       22.4786103000
  H        22.9487011500       19.8445008800       22.6449210100
  H        20.3853635500       20.7028430800       23.9954642800
  H        18.7986451900       21.2945427800       23.7142275500
  H        21.7551055300       19.7705070700       18.5418475300
  H        21.2293029700       21.1210690500       18.2176834100
  H        20.6434915300       23.4065172900       21.7250606200
  H        20.1052444400       21.9577473700       21.8329312100
  H        19.8590224300       16.1361504500       20.1073830000
  H        19.5004253700       17.5673828200       19.3535927000
  H        23.8671855700       23.3670108900       24.5855335400
  H        23.3236297100       22.5577249600       23.2456605200
  H        22.2898609700       21.7171154500       21.5363948900
  H        23.5698683300       21.1204591200       21.0391259200
  H        18.2877628600       18.8369902700       17.7648927700
  H        18.7084596400       20.1333525700       18.6746314300
  H        16.3191008800       18.5666417100       20.9249583400
  O        17.1882739600       18.9966144600       21.1149519000
  O        19.8109526000       22.0850534300       18.6431590600
  O        21.3626931500       16.8108558300       21.8663975200
  O        20.7415194500       24.3227657200       23.3807460700
  O        19.0199642300       18.2316850700       22.9452246800
  O        24.2641663700       20.5196627200       19.6642964200
  O        21.4793213300       20.5175228800       24.8325766800
  O        17.9117015300       17.0629806800       16.9639384600
  O        22.8856554500       17.8746930400       19.2652861600
  O        22.8716278300       19.0196546400       23.1251016500
  O        19.6686134700       21.0510939100       23.2904185700
  O        21.9720328500       20.5688973300       17.9522300800
  O        20.5730493700       22.5063264300       21.1701085800
  O        19.9379173600       16.6929754600       19.2778252700
  O        23.1497252500       22.8389342500       24.2032629800
  O        23.1655760900       21.5226126400       21.9219097900
  O        18.6217573000       19.1561033300       18.6754300300
      51
 i =        1, time =        0.000, E =      -292.7372548382
  H        17.4626307200       19.8234535000       20.2777646800
  H        19.8932545700       22.2173991100       19.5695562600
  H        18.9828884500       22.8097463100       18.5126288700
  H        20.8616787200       16.2592588700       22.3640363100
  H        20.0570429900       17.5212631700       22.2561634700
  H        21.9707282300       23.8090714600       22.9955849500
  H        20.6682677900       24.6640425000       22.9203089700
  H        17.9305116300       18.2084867100       22.0341333300
  H        18.9036300300       19.0335039300       22.9277436800
  H        23.7350872700       20.8391867600       19.3684150500
  H        23.6637265300       19.3035557000       19.6160065400
  H        22.0108673000       19.9423944800       24.5350145000
  H        21.9289513800       21.4221780500       24.9887470400
  H        18.6419436300       16.7001217200       17.7089254300
  H        18.4937782900       16.7772014800       16.2456171600
  H        21.9482519900       17.8495550200       20.3836218500
  H        22.2254897900       17.4759145900       18.9053068800
  H        22.2459513600       18.2152514500       22.7642559600
  H        23.1113552500       19.5729986000       22.8263151500
  H        20.4177746200       20.6137105900       23.9556050800
  H        18.9202803700       21.0814266300       23.5821885600
  H        22.2361323600       20.4425981700       17.1848076700
  H        21.4845589200       21.4243536500       18.3054889500
  H        20.8995727000       23.0136552400       21.5321976900
  H        20.3866528800       21.5946610400       21.8329090200
  H        20.1646056800       16.4569836300       20.0496018300
  H        19.4180446500       17.7007675300       19.5020017100
  H        23.9577461600       23.5058590900       24.2461661900
  H        23.5898126800       22.2400073900       23.2435289500
  H        22.5769475000       21.5471755000       21.7241463000
  H        23.8609937500       20.7556778200       21.2519167600
  H        18.4713200000       18.9250230700       18.1120494700
  H        19.0884860900       20.4141030500       18.5880307700
  H        16.1252762300       20.0506884800       21.0241996900
  O        16.9601898200       19.6318918800       21.1112897500
  O        19.6299856100       22.0792061000       18.6079045200
  O        20.8887780300       17.1381665500       21.8832231200
  O        21.3558266100       24.2463476400       22.3729554300
  O        18.5467908700       18.1081298400       22.7624614700
  O        24.2004376800       20.0940134300       19.8471818800
  O        21.4427381300       20.5634725700       25.0586425500
  O        18.2435619400       17.3306650300       17.0430695500
  O        22.6473586800       17.7401552900       19.6876254700