      12
 i =        1, time =        0.000, E =       -68.8447034182
  H        19.0533328900       23.1440650500       21.7413043900
  H        19.8075164300       21.3976069200       20.4400426000
  H        19.7209571000       20.0092538700       21.0572203300
  H        18.8217478600       16.7169723600       17.9457357100
  H        19.3121895500       17.7140090100       18.9552209300
  H        16.9038047100       22.0780470300       18.7698276300
  H        17.7733187600       20.9276952900       19.5144864400
  H        18.6046088900       23.1851696200       20.2668822400
  O        19.3345368100       23.4379089800       20.8477841200
  O        19.4784384500       20.4783090200       20.2229727200
  O        18.6808743400       16.9755420800       18.8620122100
  O        17.4253908800       21.8435754600       19.5845883200
      12
 i =        1, time =        0.000, E =       -68.8435243636
  H        19.4372064000       23.1348403900       19.1873392200
  H        19.4569464600       21.0898131000       21.0195062800
  H        19.5358584000       19.6078980700       20.5183288500
  H        19.7206907500       17.6122482900       18.7776552700
  H        20.6645284800       18.8778933700       18.6825121400
  H        15.9842713400       21.2676988100       19.8347008100
  H        17.0193703900       20.4228981100       19.1544323900
  H        18.2244211100       22.5062871800       19.8671340200
  O        19.1462469600       22.7486377300       20.0620247300
  O        19.3413401600       20.1363824600       21.3354454200
  O        19.8413418400       18.5679004500       19.1269947600
  O        16.5874248500       21.3235717200       19.0967929700
      12
 i =        1, time =        0.000, E =       -68.8471852549
  H        18.7451190500       23.4980273000       19.9706760900
  H        19.8671150500       20.8354304800       20.3868417600
  H        19.9934797500       19.4368660000       19.9666051700
  H        18.8894096500       20.4241753700       17.2650762400
  H        18.2341363100       19.6027010700       18.2938961400
  H        16.4595938800       20.0139618200       21.6098495500
  H        17.9769244800       20.0379101500       21.0005451200
  H        18.0206233600       22.1286840800       20.2090889900
  O        18.8260343000       22.5119513800       19.6978931600
  O        19.9023518000       19.9107248100       20.8251997600
  O        19.1546268000       19.7214503600       17.9432012500
  O        17.1503324100       20.5404947700       21.0503160800
      12
 i =        1, time =        0.000, E =       -68.8329282539
  H        18.7105512400       23.5877592100       19.4955387200
  H        19.1970267700       20.9696258700       20.6995631500
  H        19.3250399400       19.5230207400       20.1505176500
  H        20.6392286100       17.9766038700       18.2704924600
  H        19.6235037100       18.7679708100       17.6264616100
  H        16.5632270500       21.8107884600       19.6487032300
  H        17.4057498500       20.5562366400       20.0025738000
  H        19.7766926500       23.6212070900       20.6526340400
  O        19.1320546700       23.0492480500       20.1736526600
  O        19.2798580700       20.0411795000       20.9493611500
  O        19.9893669100       18.6300441300       18.4912403200
  O        16.4396126900       20.9115126300       20.0381985400
      12
 i =        1, time =        0.000, E =       -68.8365433102
  H        19.5363682700       23.7037001600       20.5498263300
  H        19.3948134500       21.3370592400       21.1520427300
  H        19.8338973000       20.0679215200       21.9286011200
  H        19.6414217900       17.6658798000       18.4604575100
  H        19.4572787700       19.0414784500       17.6564762800
  H        17.4220826300       20.5349625000       19.7190833200
  H        16.0333446200       21.1258738600       19.8803055600
  H        18.2054826800       22.8826552000       20.5253898600
  O        19.0471625700       22.9794378400       20.9689849600
  O        19.4211361300       20.2988238300       21.0907750500
  O        19.4675828100       18.0443366500       17.5561394800
  O        17.0131464000       21.3379697200       19.8270211000
      12
 i =        1, time =        0.000, E =       -68.8421254173
  H        19.0641276100       23.4871379800       19.7439708900
  H        18.7261686100       18.4061819500       21.9720556700
  H        18.8033976600       18.0845954300       20.4433001200
  H        19.5424566000       17.4349457200       18.5369491300
  H        19.1779375200       18.8966936000       18.6691075300
  H        18.5267908300       20.7882392400       20.5057983300
  H        17.2999464100       21.6825802800       21.0420884300
  H        18.0663515000       24.4398452400       19.0097141100
  O        19.0259404900       24.3625341000       19.2384338300
  O        19.0224275400       18.7725839700       21.1313553300
  O        18.7528219300       18.0188765300       18.4937102800
  O        18.1678425000       21.7043624100       20.5762204500
      12
 i =        1, time =        0.000, E =       -68.8483325590
  H        17.7884374500       23.0327321600       20.0019024700
  H        19.9042946100       20.6384471100       20.2802057300
  H        19.9135120000       19.1003481300       20.0338580100
  H        19.4184688300       17.1161053000       18.9161593900
  H        19.8072140900       18.2194187400       17.9079572600
  H        16.3001721700       20.8586646300       20.4390416700
  H        17.7947747100       20.6295202700       20.7027073200
  H        17.6374224500       24.3902020400       19.4742616800
  O        18.3583294800       23.8318400900       19.8301484200
  O        19.4147087200       19.8371022400       20.5389453500
  O        20.1134649900       17.7669413400       18.6970184000
  O        17.1230332700       21.3742615400       20.5101303700
      12
 i =        1, time =        0.000, E =       -68.8333595400
  H        19.5246616800       22.7844379800       19.4634285400
  H        19.6707130200       20.8457580700       20.9230050200
  H        19.7217561100       19.6114136400       20.0982454000
  H        18.5024934100       18.5509161200       17.7274699300
  H        19.9599287500       18.5888578900       17.1340869100
  H        16.5314111100       21.9477249500       21.4094172100
  H        15.7389209500       21.1302968500       20.3328065600
  H        18.0850568900       22.3639766300       20.1291522200
  O        19.0710700400       22.5852661400       20.2763239700
  O        20.0829084600       19.9009927000       20.9101011800
  O        19.4170789000       18.4511439000       17.9732528600
  O        16.4907316500       21.7569447700       20.4504910000
      12
 i =        1, time =        0.000, E =       -68.8460516184
  H        18.1271532800       24.4060443800       19.9949876500
  H        19.3186495400       20.4355933900       20.6138841000
  H        20.8552568800       20.4050510100       20.9443749200
  H        19.6829060200       18.6145358900       19.4388321000
  H        18.7028117100       17.3675115700       19.3741117100
  H        17.6202831600       22.0915150400       20.3708809100
  H        17.0967903500       20.8583665300       19.8096332200
  H        17.3456433700       23.5333962200       18.8801266100
  O        18.0506913400       23.5206674800       19.5823364500
  O        20.1676609600       19.9690706400       20.4169010700
  O        19.2764785900       17.9326731000       18.8214546400
  O        17.5030373800       21.1529450500       20.6502873200
      12
 i =        1, time =        0.000, E =       -68.8418771597
  H        20.3288034800       22.9135446600       19.8021137100
  H        19.0341295600       20.2688521400       20.9297961700
  H        18.5614774800       18.9717862800       20.1396792600
  H        20.4860147100       17.8938164000       18.4474841100
  H        19.3498471700       17.2145976500       17.8486389800
  H        16.7685857700       22.3143878700       20.7259875300
  H        17.4459187200       20.9796231600       20.1575503700
  H        18.8185067300       23.0719258700       20.0719756100
  O        19.6784468400       23.4429161000       20.2501826900
  O        18.4192761100       19.5046108700       20.9803628500
  O        19.5126247100       17.9572388800       18.4104960400
  O        17.2587538100       21.9278657400       19.9120701800
      12
 i =        1, time =        0.000, E =       -68.8421811265
  H        18.8391030500       22.7427479000       20.0250752600
  H        19.9726964200       19.1253932400       20.8899069800
  H        19.0303885100       18.9754472800       19.6611585200
  H        19.6233742900       17.8194076200       17.6687336600
  H        19.2199397300       19.2313393400       17.3708317300
  H        17.0066727300       21.0748132800       21.0188563100
  H        18.3661350400       20.6784798300       21.1709781700
  H        17.6036451400       23.5464622800       19.8196393600
  O        18.5180852900       23.4853913100       19.4487176000
  O        18.9996834800       19.1296475900       20.6867613300
  O        19.6291455200       18.7133061200       18.1206430400
  O        17.7934653600       21.5316581900       21.3283686400
      12
 i =        1, time =        0.000, E =       -68.8352144756
  H        19.0651583700       21.8759207100       20.6535169700
  H        19.4735785900       19.8720127500       20.7779299700
  H        18.9444126400       18.6595475900       21.6591085200
  H        19.0040439300       20.2715485900       17.0481892400
  H        19.1923875700       18.8561272400       17.5077111300
  H        15.8479661200       22.3257390100       20.9616226200
  H        16.5140056400       20.9056925900       20.7980264700
  H        20.2418014600       22.5846685700       19.9447634100
  O        20.0180999700       21.7990588800       20.4910849300
  O        18.6358813000       19.4425370600       21.2026304200
  O        19.7571908000       19.6011690800       17.2240956700
  O        16.6160648500       21.8813282200       20.5579544200
      12
 i =        1, time =        0.000, E =       -68.8411841104
  H        19.4634215300       21.9589791500       20.5461264700
  H        17.9744902900       20.0671678000       20.8642834600
  H        19.0146739000       20.1454618300       19.7515297200
  H        20.1814367900       18.2563095300       18.1568190500
  H        20.8562747700       19.6022295600       17.5826597100
  H        16.5022669700       21.2778340800       19.9540949500
  H        15.5830448200       20.8811979800       21.1614830300
  H        19.4198653300       23.3529853600       20.9893561000
  O        19.8214332900       22.7916180800       20.2761552200
  O        18.9534090900       20.2099464400       20.7333359000
  O        20.1096149600       19.2164487600       18.1016911900
  O        16.0979131900       20.4940520000       20.3862889900
      12
 i =        1, time =        0.000, E =       -68.8453301147
  H        19.0041972600       24.1690093500       19.9130635900
  H        19.3459482800       20.9991758200       19.4337912100
  H        20.1385977700       20.3012981000       20.5260412600
  H        18.8261705700       17.3512426800       18.8918048900
  H        19.4294080600       18.6833551600       18.6228137300
  H        16.5883595200       21.1474860300       21.5982401000
  H        17.8280025600       20.7440443800       20.6309725700
  H        18.3662765100       23.0021027300       20.7306147500
  O        19.2732607400       23.2936968000       20.3883056200
  O        19.2982259600       20.1623140100       19.9837910000
  O        19.3319200800       17.7942674100       18.2414070600
  O        17.0454780500       21.4078841200       20.7994799900
      12
 i =        1, time =        0.000, E =       -68.8343325172
  H        20.7314796800       22.3903154400       19.4276576700
  H        17.9501237100       20.4558014800       20.7321096700
  H        18.7242560800       19.1801394200       20.8988073400
  H        17.6696894900       18.2199931700       18.5559409600
  H        19.0813984100       18.6003493500       17.8725551800
  H        18.4674307400       22.4236623200       19.8219416200
  H        17.3441744600       23.3279906300       19.3569203900
  H        20.1114338300       21.0175821700       20.1194125300
  O        20.1737063000       22.0426691600       20.2102520500
  O        18.4785373600       19.9824822200       21.3936438900
  O        18.7034056700       18.2944152900       18.6626484200
  O        17.5583926800       22.3878571900       19.3708591300
      12
 i =        1, time =        0.000, E =       -68.8328943018
  H        19.1659892600       22.9316005000       20.1827566100
  H        19.2577398600       19.1855338700       20.4189048600
  H        20.1127484300       19.7297953200       21.4413312400
  H        20.4771042300       20.0777641300       18.6608037900
  H        19.9939931000       19.1996764100       17.5638798800
  H        16.3209885100       20.4366834800       21.2342884900
  H        17.2228884100       21.5135878900       20.6385139100
  H        18.2786570300       23.3609150700       19.1897243300
  O        18.8862158300       22.6426481400       19.3079552600
  O        19.1762608200       19.7504856900       21.2544373900
  O        20.4687839300       19.1574091000       18.4158016500
  O        16.3355207700       21.1052351700       20.4988731400
      12
 i =        1, time =        0.000, E =       -68.8353476745
  H        19.1891723400       23.6558061700       20.1205353700
  H        19.7854414100       19.4920263700       22.0576927400
  H        19.7093169400       19.1653374500       20.4670175300
  H        20.6301106400       18.9057039600       18.3203222000
  H        19.3960396600       18.0736635900       18.0036389800
  H        15.9925353600       21.4362273700       20.3602909100
  H        17.1667576300       20.6110533900       20.7864305500
  H        18.3119826500       22.4876834300       19.4181797600
  O        19.0168079200       23.2004141300       19.2619382500
  O        19.1832204000       19.5093006800       21.2518909800
  O        19.7302338900       18.7494714900       18.6604286600
  O        16.9773930900       21.3609095400       20.2899627400
      12
 i =        1, time =        0.000, E =       -68.8415586640
  H        18.9545059200       23.9139362200       21.4193567400
  H        19.3092611800       21.2994286900       19.8653018100
  H        19.9618101000       21.5469782700       18.4624631400
  H        18.3612073200       18.3577334300       17.9572054100
  H        19.4777176600       19.2243026800       18.6558672600
  H        16.4813571000       19.9301674000       21.2565820800
  H        17.9243539300       19.8004044300       21.1976138600
  H        17.9641995500       22.6719511000       21.1878278200
  O        18.8631924500       22.9848414000       21.0250145200
  O        19.6680366800       20.8552323400       19.0796834100
  O        19.2664615200       18.2997963600       18.2915117600
  O        17.2200289900       20.4964180100       21.0385181500
      12
 i =        1, time =        0.000, E =       -68.8580643811
  H        19.5383818800       22.1796948500       20.2969272500
  H        20.8023640600       20.3009280500       21.4260320700
  H        19.5982622800       19.8683161400       20.3880527700
  H        18.7302514500       17.7499805500       19.4751170900
  H        18.1245129100       19.1918942900       19.0759548000
  H        17.7414957200       21.5591635100       19.7857329100
  H        16.4056091200       21.2820887000       18.9531951600
  H        19.0838662300       22.8436980300       18.9935132300
  O        18.7877690100       22.6804072800       19.9493814400
  O        20.0144853000       20.6077512100       21.0035218900
  O        18.9486780800       18.6813789400       19.1999342000
  O        17.1665901500       20.7782133500       19.3831813100
      12
 i =        1, time =        0.000, E =       -68.8468831712
  H        18.0565393000       23.9030457700       18.8494118300
  H        21.0023833600       20.2941796600       20.9354119600
  H        20.0435364900       19.1689808600       20.5648889400
  H        19.2534867000       18.3800601000       18.3806588600
  H        18.4017414100       17.9659555100       19.5225154800
  H        16.8595076700       20.4833804500       20.1603571600
  H        18.4324085500       20.7688395800       20.2745058700
  H        17.7141292300       23.0025368700       19.9789271900
  O        17.9858917500       23.9209896800       19.7750946200
  O        20.0496165200       20.0919817900       20.8592985500
  O        19.3168514300       17.8632442200       19.1919258800
  O        17.5816075300       20.9350925600       19.6925531400
      12
 i =        1, time =        0.000, E =       -68.8296077326
  H        18.9139903400       22.7995594500       20.7492684000
  H        18.7190468600       19.3373582100       19.2166204900
  H        18.3926583000       20.6355769700       19.8090664200
  H        18.8011245200       16.2839412200       18.1547593900
  H        18.7047097100       17.6292628400       17.4881135100
  H        16.9129931500       22.3854958900       21.8251423900
  H        16.2245151500       22.7240996700       20.5331537700
  H        20.3954093700       22.4441041500       20.7988871400
  O        19.7770880400       23.1238300800       20.4954440900
  O        19.0952110900       19.9311727800       19.8718559700
  O        19.1330258800       17.2045009900       18.2882968700
  O        17.0987078300       22.5346408800       20.8690505600
      12
 i =        1, time =        0.000, E =       -68.8379807644
  H        17.7776085000       22.4317733300       21.0098612000
  H        20.0178334700       20.8937120600       20.1969511100
  H        20.1376034500       19.6202248800       19.4994494500
  H        19.7419756700       18.0819504500       18.4423968500
  H        20.0049856700       19.2903198600       17.5137638100
  H        15.7412776900       20.9062175300       20.5771859000
  H        17.2137502600       20.1722360900       20.4544615100
  H        18.1907275900       23.8445751100       20.3749771600
  O        18.3427762700       23.2385363400       21.1695314300
  O        19.4982952600       20.0556695000       20.0846727400
  O        20.3925141100       18.4156356700       17.7776104700
  O        16.7594774400       21.0211977800       20.5247105900
      12
 i =        1, time =        0.000, E =       -68.8332063972
  H        19.5944898000       22.5889029100       18.5017474700
  H        19.7252624300       20.5682448400       21.1079420600
  H        19.1564172600       19.3859781600       21.8712364200
  H        18.6775733600       19.3304332600       18.3972464200
  H        19.6405466800       18.8453211500       17.2862047100
  H        16.7727242000       22.2715785200       20.3788688800
  H        17.2523536400       20.9162779800       20.9689585900
  H        20.1054025200       21.1827155000       19.1125237600
  O        20.0678862800       22.1868388900       19.2891090100
  O        18.8125055800       20.2584161400       21.4593810500
  O        19.5519042500       18.9182050300       18.2378498900
  O        16.4285212200       21.3771279100       20.5981791200
      12
 i =        1, time =        0.000, E =       -68.8357330158
  H        19.1120586000       24.5937998000       20.8689416400
  H        19.4930033700       19.3105108400       19.8995784400
  H        20.1040618600       20.7334162100       19.9774087300
  H        19.1912765200       16.8507799200       18.6458724100
  H        20.2813682500       17.9517874200       18.3629397200
  H        16.5902654700       20.4840642600       21.0279156900
  H        17.8288202400       20.4532414700       20.1993045700
  H        18.4046230500       23.3309140600       20.1771540700
  O        19.0558301800       24.0543699000       20.0997679500
  O        19.4121310400       20.1379196500       20.3783182000
  O        19.4777266800       17.7878175400       18.8350750600
  O        16.9100445300       20.8474854400       20.1746854500
      12
 i =        1, time =        0.000, E =       -68.8487222772
  H        18.8582670800       23.4302733400       21.3406250600
  H        20.1892445600       19.8768890300       21.3127078200
  H        19.4983853600       21.1911072500       20.5955750500
  H        19.6401857700       18.9034603600       18.8124555200
  H        19.7569186600       17.3692871300       18.3859074200
  H        17.0408100200       20.5039607800       20.3597402100
  H        16.0253336800       21.2149296000       19.4391623200
  H        18.0897546800       22.5158559500       20.4031863200
  O        18.9538599300       22.9083749700       20.5703105900
  O        19.6002061800       20.1977089800       20.5882550400
  O        19.7713165400       18.2955239300       18.0223174700
  O        16.6504716800       21.3442528300       20.2130722700
      12
 i =        1, time =        0.000, E =       -68.8403370528
  H        18.9281788000       22.4208635800       20.5201586000
  H        19.6024586400       20.3193025100       20.2786072500
  H        18.8396348200       19.1009486700       19.6508919900
  H        18.7095125900       17.6455893500       18.2116845400
  H        18.2827707200       18.7100745400       17.0761563200
  H        17.6497225700       20.6759685900       20.7413826300
  H        17.0116765600       21.6723192800       21.8255423100
  H        19.1682188400       23.5686256900       19.6712049700
  O        19.7139898300       22.9701666000       20.2424989800
  O        18.9138031800       19.6233699000       20.4985362800
  O        18.9074121700       18.4995487100       17.8682387500
  O        17.4977764700       21.7089795100       20.9531369500
      12
 i =        1, time =        0.000, E =       -68.8359472004
  H        20.5415613500       22.8522122900       18.8809011500
  H        19.1263733700       19.4412161400       19.7855556900
  H        20.1865533500       19.8293928500       20.9290195700
  H        17.9380442600       17.2777416600       18.6263659300
  H        16.7752384800       18.2466192400       18.9218709300
  H        17.1698087400       22.5179709800       20.5426479000
  H        17.7093800500       21.0735103600       20.5389213100
  H        20.1197669300       21.9012837400       19.9678553500
  O        20.6604747200       22.7976610000       19.8348996100
  O        19.5410326300       20.2381574700       20.3137139300
  O        17.8273311500       18.2209916100       18.8247536800
  O        16.9175409100       21.6066043900       20.5753398100
      12
 i =        1, time =        0.000, E =       -68.8451137399
  H        19.3653257500       23.4708787900       20.4537942500
  H        19.1584108500       20.6544725900       21.0808835700
  H        18.4298984600       19.2923776500       20.9569227900
  H        21.3940739300       18.9344491700       17.4600803800
  H        21.2482742100       17.4669898100       17.8925073800
  H        16.7733268300       21.1405826800       20.6088493000
  H        15.5232931300       22.0588776600       20.4023428900
  H        18.2005817100       22.5164959400       19.9030019800
  O        19.1866747800       22.5870987600       20.0109336700
  O        18.5400630000       20.0200477900       21.5622201300
  O        20.8199646900       18.3175138400       17.9740433500
  O        16.3665079900       21.7878485000       19.9658972300
      12
 i =        1, time =        0.000, E =       -68.8387024835
  H        19.4781751100       24.0666331500       19.0050583900
  H        19.0416539500       21.5028013500       20.0054409300
  H        19.5597045700       20.0891575300       20.0541401300
  H        21.6009959500       19.0979289800       19.8153621600
  H        20.7275669700       18.3316807200       20.7953806200
  H        17.0363872900       20.4436090800       20.0089706800
  H        15.6951937200       20.0913459600       20.5711663700
  H        18.0412500500       23.3789180300       19.1351088100
  O        18.9463926800       23.3186071300       19.4806028000
  O        18.9230649700       20.7135336100       20.4931611600
  O        20.7760945900       18.5239622900       19.8139641400
  O        16.1991261500       20.0639822100       19.6855323300
      12
 i =        1, time =        0.000, E =       -68.8311671294
  H        20.0756905100       23.2878763300       19.7921137300
  H        19.3774511200       20.8796451200       19.9507729300
  H        19.2056675700       19.4772415700       19.4466871600
  H        19.3469088800       17.8259073000       18.4295295000
  H        20.1747630500       18.4652350600       17.4374821100
  H        16.9090305500       21.8936783100       21.5044303800
  H        17.5879185500       20.5589297200       21.4341998700
  H        19.1577303800       23.8328772600       20.9872497800
  O        19.2633171000       23.1082958900       20.3409398300
  O        19.4480573800       19.9691517200       20.2155174500
  O        19.3222296100       18.5798153200       17.8003258600
  O        16.7698550600       21.0120084800       21.1421931500
      12
 i =        1, time =        0.000, E =       -68.8382995518
  H        17.8472774000       22.3136080500       21.7762901700
  H        19.5167328500       21.2956299500       20.4392458200
  H        18.5007635500       20.1458643300       19.7339779000
  H        22.0118230100       18.7895105500       19.3753878300
  H        20.5958711400       19.2420869900       19.5038729200
  H        16.0913707100       20.0725503200       19.6627247200
  H        16.6364434900       20.8523629600       18.3510558800
  H        17.5157932000       22.2630008800       20.3374894300
  O        17.7915141300       22.9482235100       20.9700285400
  O        19.2961259400       20.3685086000       20.2781623400
  O        21.1774552800       18.7208126700       18.9153907200
  O        16.7348784200       20.7102784800       19.3229464200
      12
 i =        1, time =        0.000, E =       -68.8459060240
  H        18.7393166800       24.1275047700       20.2736531700
  H        20.3711239200       20.3056919300       20.0616881400
  H        19.4158156300       19.3594669200       19.1347119600
  H        17.9616149400       18.1425431200       17.5305027700
  H        18.8301278000       18.8374965500       16.5464434300
  H        17.3108433000       21.0691610200       22.1797455000
  H        18.1014469000       20.6439131100       21.0195513000
  H        18.2868299900       22.7622635700       20.8919019500
  O        19.0829445800       23.3604548600       20.8243838100
  O        19.6822788600       19.5324086100       20.0495235100
  O        18.8359411300       18.5289281500       17.4829969000
  O        17.3798422600       21.3088046500       21.2267662000
      12
 i =        1, time =        0.000, E =       -68.8385619312
  H        20.3476079000       22.7872154900       20.1622470400
  H        18.9358159300       19.7540584200       21.5758449400
  H        19.1178790800       19.2749467300       20.2166756700
  H        20.3248742000       18.5233469500       18.2060141400
  H        19.0944290600       17.5378290900       18.1693773000
  H        15.8071403500       22.2478805200       19.1463714400
  H        17.3430236900       22.4644488000       19.8000311100
  H        19.2655365700       21.7617644800       20.4989216800
  O        19.4213690400       22.7223054800       20.4498486600
  O        19.6498515700       19.7466193300       20.9055708900
  O        19.3305448900       18.4328967600       18.4700024000
  O        16.5024277000       21.8852609300       19.7495989700
      12
 i =        1, time =        0.000, E =       -68.8340504972
  H        20.4713962800       23.5246018200       20.9075691100
  H        19.4424737900       19.9015143200       20.1018233100
  H        18.8690894900       18.9201890400       19.1097727700
  H        20.4490411100       17.5254701800       18.0826475000
  H        19.5045819700       18.0128014700       16.9617799900
  H        17.3297037000       20.9107297800       20.9172985500
  H        17.1017438800       22.3388629100       21.3538922100
  H        19.3489618400       23.7063711200       19.9298648200
  O        19.5214380000       23.3848913800       20.8363029100
  O        18.5687001600       19.4702919100       19.8986364000
  O        20.1223784000       18.3719908900       17.6830926700
  O        16.5479845000       21.5290962000       21.1828731500
      12
 i =        1, time =        0.000, E =       -68.8494678291
  H        19.4332857800       23.4481254700       21.7583935600
  H        18.9513364000       20.6458388000       20.0663986000
  H        19.5051984600       19.3335992400       20.5771626100
  H        19.2383660400       17.9883345800       16.9689292300
  H        18.7546916700       19.0693474200       18.0483378100
  H        17.6638630500       22.3683612200       20.2128557600
  H        16.6142696200       21.4452355500       19.5841015600
  H        19.2694455800       21.8813751400       21.4914891000
  O        18.8144119900       22.7152573900       21.6639974800
  O        19.7622426900       20.2527929500       20.4719810200
  O        18.7993833800       18.0751183100       17.8723336500
  O        17.5789268900       21.6286968300       19.5079774300
      12
 i =        1, time =        0.000, E =       -68.8451733542
  H        19.1514442600       22.0521356500       20.3592913100
  H        20.1625504400       20.0212962600       20.3184367400