      42
 i =        1, time =        0.000, E =      -241.0409734743
  H        17.9704523700       15.2503467200       21.2570047400
  H        17.9715878300       18.2675145000       18.8286206500
  H        18.5376118800       17.4938871700       17.5448223900
  H        19.3122755900       18.3103079700       23.0316782400
  H        18.8440490200       18.5830620900       21.5546978000
  H        16.7964661800       22.1708525500       19.8892903200
  H        17.6586317800       21.3475296300       18.8292559000
  H        16.0373647800       16.6268489400       22.0063774800
  H        16.7902975300       17.5289573300       23.0744729800
  H        19.2542630600       20.4989327000       16.3501605400
  H        18.1758636500       19.7890553500       17.1979348700
  H        18.8342073200       19.9703802600       25.4400132300
  H        17.3427458800       19.8518232500       25.6817562400
  H        16.7965761400       20.0938201900       15.5257179400
  H        15.5566566700       20.4414471100       14.7986927200
  H        21.6249336800       21.2572463300       16.4327142400
  H        21.4123821000       19.8310984100       17.1072686900
  H        20.4930904200       21.4614076400       24.3417505300
  H        19.5087416600       20.5985298000       23.5623624500
  H        17.9360676500       18.0691152500       25.0666550700
  H        18.5112053500       16.6423774000       24.8421977100
  H        18.3534909000       16.7252575800       15.3077697900
  H        19.8869601900       16.7013161100       15.6626157600
  H        17.3921605400       19.6379452200       20.3950207000
  H        16.7381672200       18.3392135500       21.1907823600
  H        21.6331236500       18.4080013300       19.7328759700
  H        20.3880795000       18.0892185600       18.8542559200
  H        17.0795817700       15.7133522500       20.0404379100
  O        17.0423232000       15.3348652000       20.9410015100
  O        18.7194481700       18.2270798200       18.2147632600
  O        19.4798711500       18.9345692100       22.2553144100
  O        17.3583204800       21.3842153300       19.7723206700
  O        15.9275521600       17.4809190200       22.5023560700
  O        18.2539219000       20.5059550000       16.5099063300
  O        18.1494295300       19.3537304000       25.8502920800
  O        15.9683516900       19.6602587200       15.1208168300
  O        21.1194191900       20.4057275300       16.3672407500
  O        19.6194854700       21.1259911500       24.3436337200
  O        18.1670371100       17.3864068400       24.3923818700
  O        18.9819359400       16.4476766300       16.0111171400
  O        17.3754259900       18.6644214300       20.4826173300
  O        21.3473722200       18.3184763600       18.8361104100
      42
 i =        1, time =        0.000, E =      -241.0537861141
  H        15.3271108500       16.0290108300       19.7546153800
  H        19.1866491900       18.2846980200       19.2421109400
  H        18.9539232900       17.1977464900       18.1647103700
  H        21.2864362000       18.8845990100       22.3872017300
  H        20.0177929600       19.2547333400       21.6162425700
  H        17.1452616500       21.5961229500       19.4247222200
  H        16.4742990500       21.8899867600       20.7485015700
  H        16.9124496900       16.6981719900       21.1018343400
  H        17.0585006200       16.9939285800       22.6631642300
  H        18.1434931800       20.3241034200       17.8635311400
  H        17.1412271500       19.2401066300       18.3664364400
  H        18.9705935500       19.1809392500       24.0443089800
  H        19.8719762800       18.9129087000       25.2807065700
  H        17.0612476600       19.9155273000       16.2135047200
  H        17.9802104100       19.6559588700       14.9494058400
  H        19.8604373400       19.1720926400       17.5844416100
  H        20.5843439500       20.4264788500       17.7230600100
  H        18.6306004700       20.7010545800       22.3142498300
  H        19.5438618700       21.6046987000       23.1046789400
  H        17.9464408900       16.8956389800       24.4414282500
  H        16.9175076500       15.9036834200       25.0478429100
  H        16.9115428000       16.2953971200       16.5894580400
  H        16.9108898300       17.8532077500       16.5457015500
  H        17.9216802200       20.0619201800       20.5874349500
  H        17.5755157200       18.5829231700       21.2009930300
  H        21.6347929300       19.6179407300       20.1006928500
  H        22.3282453000       18.7743699300       18.9161328000
  H        16.4589458400       16.4854165200       18.9203805700
  O        16.2394371200       15.7610312500       19.5065564100
  O        19.6882912700       17.7412944200       18.5792194100
  O        20.9542495200       19.5212871300       21.6995740300
  O        17.3665338700       21.7117383200       20.4041635000
  O        16.7306953600       17.3785953300       21.7709777200
  O        17.1499171900       20.1568077000       17.9419668500
  O        19.4758352700       18.4477977700       24.4950983700
  O        17.1435119200       19.3583393900       15.4009983700
  O        19.7786605100       20.1354499500       17.1907026000
  O        18.7618578000       21.0824206000       23.2283548800
  O        17.3702441700       16.1769733800       24.2307245600
  O        16.8792716900       17.1120756600       17.2280763400
  O        18.2690456400       19.1560778000       20.7638546100
  O        21.8334577000       19.5701342300       19.0745311600
      42
 i =        1, time =        0.000, E =      -241.0452444653
  H        18.6190791400       15.2028996500       21.2598325700
  H        18.1205457300       17.6984351100       18.8764853900
  H        18.7408200700       17.0047641900       17.5259491900
  H        19.5698956000       18.3054204500       23.0586044100
  H        18.5631557400       18.3026590300       21.8570281600
  H        16.1401544400       21.7803002400       19.9774418700
  H        17.6682670300       21.2519553500       19.7211368200
  H        16.2221310400       15.7704449600       21.5364914200
  H        15.6214081300       16.5147858900       22.7694515700
  H        19.5892538200       21.0000005000       18.1972520900
  H        18.5982499700       19.8982830900       18.4082075600
  H        18.5224106200       21.2834927500       24.3963198000
  H        19.6067882900       21.0310772600       25.5152634900
  H        16.1017327100       18.4647916200       13.5125810900
  H        17.2898346900       19.2949730300       12.7415470200
  H        21.4347744900       19.8246539300       18.7805088000
  H        21.4223076000       21.2750744600       19.2866989600
  H        17.6739019900       22.7640049800       22.9808569300
  H        17.4030069200       21.5701011000       21.8545054800
  H        18.9496971200       19.0176311800       24.9238977200
  H        17.7983046300       18.0992722100       24.5160614100
  H        19.1243679500       16.7937540300       15.1884992900
  H        17.8697676000       17.7111733800       15.2332528700
  H        16.6706961000       19.3133111500       20.0835051200
  H        16.5192717900       17.8590163000       20.5837144100
  H        20.9317145200       18.2351328000       20.5378693500
  H        20.4391498800       17.8968114800       19.0937609300
  H        17.9795818700       15.2371786900       19.8134971500
  O        17.8070833300       14.9919047100       20.7576429400
  O        18.9792349300       17.3781509100       18.4512589800
  O        19.5289671300       18.3171631100       22.0711342600
  O        16.8625049000       21.1998043500       20.3536359400
  O        15.6951376500       16.5460154900       21.8050223300
  O        18.5862506000       20.8712840900       18.3173551100
  O        18.7889574800       20.7346447900       25.1503263500
  O        16.8813445400       19.0782777100       13.6569427800
  O        21.3622843900       20.7735773000       18.4324583800
  O        17.9061405400       21.7977718400       22.7344487300
  O        18.7867813900       18.0728135100       24.7205364700
  O        18.2191561800       16.8199124100       15.5609642300
  O        17.0840459600       18.4220684300       20.0741812100
  O        21.2517657100       18.1826403500       19.5969397200
      42
 i =        1, time =        0.000, E =      -241.0298053813
  H        17.0561609400       15.3859795800       19.6294819200
  H        18.6870652200       17.4978100200       19.4267079600
  H        18.9907162600       17.1879075700       17.9948835500
  H        20.1332426200       18.4468507700       22.4173061400
  H        19.1460732200       18.8310363000       21.2384025100
  H        15.4036319300       21.1723495600       20.1516642000
  H        16.6723219500       20.8409135300       19.2191329000
  H        16.8650963900       15.8930742300       22.3420307800
  H        17.2102192900       16.5231833400       23.6613091600
  H        18.1609973400       20.9229198800       17.2038595300
  H        17.7664854400       19.5358358600       17.7019443400
  H        19.0201906200       20.9761955800       24.2571266200
  H        17.6869490100       20.5118961700       24.8991550300
  H        17.3502070500       18.7316561600       14.5202518200
  H        15.9731076000       18.5104224100       14.6901887200
  H        20.5422897000       21.9333693200       16.5549726500
  H        20.5913396900       21.0936207000       17.8109272600
  H        19.0331874500       21.6439932800       22.3316016200
  H        19.6901517600       20.2119334900       22.4039798400
  H        19.0421772200       18.7748673200       24.6880337100
  H        19.2867558400       17.2550709500       24.7501672500
  H        19.3858711400       15.9879914700       15.6871779200
  H        18.1401723900       16.6662374100       15.8016614400
  H        16.9662651600       19.4440194400       20.9404548100
  H        16.8056653500       18.2169908000       21.8660589200
  H        21.2510430600       19.5413541200       19.5372810500
  H        20.2696592300       18.7611948100       18.6245719100
  H        17.6580911200       14.4525917800       20.6757245700
  O        17.4290318600       15.3503306400       20.4770867800
  O        18.7578656800       17.9536391700       18.5694110700
  O        20.1321828800       18.9065499900       21.5101934600
  O        16.3834251100       20.9910934600       20.1757267200
  O        16.4220989400       16.4477917700       23.0343269300
  O        17.4271073300       20.4323085300       17.5859873100
  O        18.5890603500       20.7367240700       25.1568951400
  O        16.8044962100       17.9697600400       14.7259470500
  O        19.9435390900       21.6447324100       17.2553042500
  O        19.6640903600       21.0973883600       22.8460913900
  O        18.8142953300       17.8771320300       24.1883666000
  O        18.6593379900       16.0316269200       16.3200087700
  O        17.4937518900       18.6903302300       21.3117697500
  O        21.1188889700       19.2739933500       18.6015992100
      42
 i =        1, time =        0.000, E =      -241.0127228341
  H        18.2056835400       16.9525652700       21.6201969800
  H        18.1516426500       17.9653880900       17.6031215800
  H        19.2564379700       16.9606426200       17.8534349900
  H        20.9021902200       20.0192976600       22.3781915300
  H        19.4281972300       19.9650557000       22.0834491100
  H        17.4736865200       20.0924699200       18.7243235400
  H        16.3969924500       20.2782111900       19.8196537500
  H        14.9986481500       18.1392855800       20.9680840900
  H        15.9120594400       17.5636935000       21.9966783200
  H        18.5054550600       19.8865042000       16.5735243800
  H        17.0166640500       19.5181819900       16.0820945300
  H        19.3701163800       20.1827852000       25.1168843900
  H        19.7731110400       18.7213097600       25.4861442200
  H        16.7270551700       16.6191557200       14.3642713000
  H        17.7590958700       17.4891461000       13.5951791800
  H        20.8407356200       19.7204096000       16.1522978000
  H        20.2770197800       19.7962227600       17.6621419100
  H        18.2434324900       22.3528362000       24.2322566200
  H        19.3218982200       21.6713500000       23.3844560700
  H        17.3691008200       19.3903811100       24.9168031400
  H        15.9398826700       18.9959989700       24.6520711300
  H        20.3354676200       16.0425327500       15.1059883700
  H        19.0785363400       16.9236264800       15.2033087100
  H        17.6268139500       19.1988978800       21.0921074800
  H        17.3971395600       18.6626322300       22.6056190000
  H        20.4578432600       19.7375339700       19.7383808300
  H        19.4625361700       18.7243532300       19.4304533500
  H        18.0839091000       15.8718141200       20.5204851200
  O        18.2168378100       15.9567926300       21.5173328000
  O        18.3076024800       17.0908193700       18.0686960200
  O        20.2364818500       20.4800505800       21.8599038200
  O        17.3773434100       20.0355455700       19.7374080100
  O        15.0995440700       18.0926625500       21.9374066700
  O        17.5759416800       19.6884934500       16.8209210600
  O        19.0740076100       19.3580961600       25.6225456100
  O        17.3460107700       17.3457648100       14.4746099700
  O        20.1009272500       20.1257752000       16.6511531400
  O        19.0700516400       21.8047943700       24.2870961300
  O        16.8072141700       18.7252149000       24.4444314600
  O        20.0096147300       16.9323482600       15.4331223500
  O        18.0279146400       18.6960839000       21.8447807000
  O        20.4195300400       18.9140153900       19.1893755900
      42
 i =        1, time =        0.000, E =      -241.0045263639
  H        18.0824491300       16.3166317000       19.7338280500
  H        17.7063682000       18.3911143000       18.9909506900
  H        18.3811055200       18.3718947600       17.5405361800
  H        18.7734598500       17.5984319300       22.0349797000
  H        18.1491336300       18.5815034800       21.1834835000
  H        17.2654250400       20.5177416300       21.4572234200
  H        17.2340594100       20.9593361500       19.8410032800
  H        16.8778544100       17.6675065600       23.3428070900
  H        16.4466833400       18.7613813500       22.4467482900
  H        18.8476984900       21.5147036300       18.1619392400
  H        17.4257720500       20.7760139000       18.0081452800
  H        19.5775378800       19.8491604400       25.1900728300
  H        20.6658141400       18.7217589100       25.3651672400
  H        16.1634950800       18.3625062800       13.9290873900
  H        17.5593305900       18.5662480700       13.0933180300
  H        21.3514947000       21.9212724600       17.3856399900
  H        20.8226871200       20.5268144200       17.5696980800
  H        19.5414466300       21.5688793400       22.7031343100
  H        19.2821054100       20.0957936100       22.4646810100
  H        18.6234946200       18.0280873000       25.5562494200
  H        17.3124895800       17.0802974200       25.6496324800
  H        17.5944454700       17.2249407200       15.3447714300
  H        19.1497537200       16.8822507200       15.7077432200
  H        16.0630396200       18.7392374900       20.2970284900
  H        16.3071768800       17.2007764000       20.6145164500
  H        21.5665197800       18.8619001000       19.7905907200
  H        20.2787823700       18.8990537400       18.9618464700
  H        19.4657136300       15.7509137900       19.9267718900
  O        18.6448046800       15.8338712700       20.3524423800
  O        18.6044203500       18.4494908300       18.4920265000
  O        18.9733862300       18.5215716700       21.7146107000
  O        16.9707937500       20.2879244100       20.5272924700
  O        16.2301002800       17.8439299500       22.6703091000
  O        17.8782298900       21.4935046500       18.4444420100
  O        20.0442428900       19.3042431900       25.8486980700
  O        16.9645685700       17.9251544900       13.6238916000
  O        20.5919199100       21.3587171000       17.1224928400
  O        18.8868879000       20.8930752400       22.9064154200
  O        18.0101603000       17.4146694800       25.0949038600
  O        18.2949646900       17.1381614100       16.1167748700
  O        16.1908508900       17.8231435600       19.8572865400
  O        21.2448321100       18.9404850400       18.9073943400
      42
 i =        1, time =        0.000, E =      -241.0162914701
  H        15.8506833100       16.2759047500       21.7095530100
  H        20.7977588200       16.5698492500       18.7766731600
  H        19.7473048800       16.2251660100       17.7345635300
  H        18.4693476600       18.7708085600       21.0173560100
  H        19.0054992000       17.4749590100       20.2774076000
  H        17.0814722000       20.5981353500       20.6882098600
  H        17.7005985400       21.0938982100       19.4581019200
  H        15.0184734100       17.6404018000       23.8428362200
  H        16.3921409900       17.8687842300       23.2753423800
  H        17.6992249400       21.3252418400       17.1631433100
  H        18.3734794700       20.0478672800       17.4384432500
  H        19.4459830800       20.4961841100       24.2481234500
  H        19.9584198200       20.2611079200       25.6934028800
  H        17.5752523700       18.8862502600       14.1133293800
  H        18.3234189500       18.7036681100       12.7905797800
  H        21.2725582900       21.5920638400       17.0963973800
  H        20.7266247100       20.8800870700       18.3358387700
  H        18.9711941300       21.1088809800       21.9206774500
  H        20.3549512100       21.5473874500       22.5103938500
  H        18.2985056800       18.4160596700       24.6879937900
  H        18.7575338200       17.6488449400       23.5080942900
  H        17.7557811400       15.4735843800       16.5480163900
  H        18.3195679100       16.8866273900       16.2074800300
  H        15.4910707800       18.9573444800       19.8244639600
  H        15.7491866800       18.5574478200       21.3342019000
  H        22.0115171900       19.4557401500       19.6358362100
  H        20.5555592000       19.2753799000       20.2813235200
  H        16.3348683700       15.5889377700       20.4445089700
  O        15.8968554900       15.4130717200       21.3037999100
  O        19.8780988800       16.7786807800       18.5337097800
  O        19.2837794500       18.2122513000       20.9087407000
  O        17.8874606200       21.0441156000       20.4720923200
  O        15.4310875600       17.7995075400       23.0038929300
  O        17.4767775500       20.4454686100       17.5701036700
  O        19.2553504500       19.9450484300       25.0748799100
  O        18.5009902800       18.8686777300       13.7724943700
  O        20.4541934000       21.1651762900       17.4101911100
  O        19.5001208500       21.1412146200       22.7500812500
  O        18.0194461700       17.6794729300       24.1636697500
  O        18.5768066300       15.9394422600       16.4706525700
  O        16.2043874400       18.8382186900       20.4915373800
  O        21.1948831800       19.9644971200       19.8620878600
      42
 i =        1, time =        0.000, E =      -241.0340667695
  H        16.9448073700       14.5614707100       20.0431617600
  H        18.3019057800       17.6196487800       18.7896704700
  H        18.1073577900       16.9237053300       17.4845222400
  H        20.1109166900       17.2392657400       22.0300311900
  H        19.7103657900       18.5074815600       21.2897366200
  H        17.4657847000       22.2963662400       18.9779844600
  H        18.8373398500       21.4675025100       18.6542581000
  H        16.5055677500       16.5911702600       21.2746360500
  H        16.1423920600       17.4346276000       22.6709792800
  H        19.0787962500       20.2204600400       16.2777416400
  H        17.8819003900       20.2628305800       17.2921919500
  H        18.4714726800       19.9783329800       24.9868640500
  H        17.4106101500       20.8040728900       25.6184431900
  H        16.0311005900       20.4771226600       15.9487230300
  H        14.6594370200       20.4039783000       15.1136079300
  H        21.1670427600       21.8426280800       18.5286353500
  H        20.7345989100       20.3431431400       18.6477366300
  H        20.6152488200       20.8209300300       22.9502414000
  H        20.5440591500       19.3008073600       22.8333653000
  H        17.7622259300       17.5132391800       25.6816779900
  H        19.1065152600       17.0266432100       26.2565749500
  H        17.3773056500       18.6289036700       15.8036562500
  H        16.2387733000       17.7099164300       16.0658777700
  H        17.9540173800       19.8168115400       20.0582872700
  H        17.4959553800       18.4457966300       20.8227055500
  H        21.2497960100       18.0711088500       19.8176782600
  H        20.7552827300       17.9269873400       18.3380518300
  H        17.9047297300       15.7668538000       19.7466882900
  O        17.4777782400       15.2714994800       20.4912443400
  O        18.6761381000       16.8597408000       18.3050164400
  O        20.5202787600       18.0697656600       21.7327652100
  O        17.8909864200       21.4170821700       18.9297757700
  O        16.1202794800       17.4394348600       21.6680913900
  O        18.1188614100       20.4048442700       16.3484496000
  O        17.9663277800       20.0287234800       25.8464264600
  O        15.1576753700       20.0835217100       15.9664174500
  O        20.4563452900       21.2076274600       18.2446505500
  O        20.0623973700       20.1255896400       23.3058047900
  O        18.5673475500       17.0270420200       25.4087108200
  O        17.2057458400       17.7096676900       16.0770376100
  O        18.3002232000       18.9620304700       20.4421869500
  O        21.1326372300       18.6046352600       18.9305399400
      42
 i =        1, time =        0.000, E =      -241.0462505408
  H        18.5435084500       15.2563533600       19.9512542500
  H        17.4974406700       18.1817422600       18.8836183600
  H        17.3546687500       17.5132637200       17.3821138700
  H        20.3159972400       19.0439316600       22.4797320000
  H        19.5981626800       19.2037062600       21.1401297300
  H        15.9585968700       22.2251871800       20.6824228500
  H        17.1021970500       21.3846627400       20.0451362100
  H        17.1779880200       15.6167421400       21.7689620600
  H        17.7447029500       16.4953618800       23.0634734100
  H        18.8596664400       21.0787611800       18.4213229900
  H        17.7126369900       20.1435220000       18.2031957400
  H        18.1586458700       20.4647882400       24.5815739300
  H        19.3877932000       20.5752169000       25.6152362300
  H        16.8258806600       18.6686306600       13.1032506900
  H        17.1355739800       19.5497886600       14.3055816400
  H        20.7446296700       20.9436231600       19.4214749700
  H        20.6098402100       19.7736605600       18.3681208000
  H        17.9098216200       21.7278085400       22.3215834900
  H        19.2759827200       21.0994123100       22.5140449200
  H        19.2157315500       18.6597510500       24.5243681600
  H        20.0366226000       17.3373381900       24.3618762500
  H        17.6005734200       15.9904544800       15.7928656900
  H        17.2015559800       17.2312706900       15.0127749600
  H        17.0157863300       19.2864938000       20.9636555300
  H        17.3135956500       17.8272283400       21.3010281800
  H        21.0100917300       18.5300346700       19.8328145600
  H        20.1328104500       17.8431854700       18.7826133200
  H        18.3392548100       13.7688579600       20.0760434000
  O        17.8762498100       14.6472691200       20.2450549300
  O        18.0091404100       17.8940262600       18.0106804700
  O        20.4127963000       19.5431536600       21.5996629600
  O        16.6374030700       21.5396362500       20.9688826400
  O        17.0200400700       16.4425741400       22.3831709700
  O        17.8323910300       21.0855087500       18.3652339500
  O        18.6002623100       19.9977199800       25.3830667300
  O        17.5370067700       18.7715566400       13.7983019200
  O        20.3330055000       20.7664335900       18.5670356600
  O        18.4908671200       21.5214194300       23.0919419500
  O        19.3473911900       17.8956562200       23.9060751400
  O        16.8065210700       16.5688429400       15.6405640100
  O        17.6481265500       18.5434857600       20.7183676400
  O        21.0253056600       18.1565371300       18.9625928800
      42
 i =        1, time =        0.000, E =      -241.0272604067
  H        16.7894604600       15.1880899600       20.3763855100
  H        18.4990169100       18.4711941400       19.1144718600
  H        18.7561051700       17.4295922300       17.9534499900
  H        20.7489587300       18.3368211100       21.4038145800
  H        19.2655893600       17.9924404600       21.7645467300
  H        16.0496947800       21.5367111700       18.7632901200
  H        17.4084629400       21.1191938400       18.0736451800
  H        16.1132950500       16.6375787700       22.3106158900
  H        16.8440792800       17.5117702500       23.3220991700
  H        19.2958071700       21.0338710200       16.7327589900
  H        18.6781294000       19.7339063800       16.9934683800
  H        18.6821360100       21.0449372500       24.9122977300
  H        19.7274598200       20.5183847500       25.8593503800
  H        16.2015996900       18.3702394200       14.8195949700
  H        16.3717908800       17.2488506300       13.7775844200
  H        21.1512049100       20.5380363300       18.4002368800
  H        20.1590973400       21.7275676600       18.5529884400
  H        18.4088106400       20.7672954300       22.2021060300
  H        19.6460736100       20.3265935500       22.7879059700
  H        17.7456265500       17.1890080800       25.8550466900
  H        17.9969604300       18.6179402600       25.4771288600
  H        18.7334328300       15.7644355400       15.3351122100
  H        17.7118337100       16.8616347300       15.4841718900
  H        17.1390129900       19.6583846900       19.8544032200
  H        17.0554941500       18.6140686000       20.9908004900
  H        22.0139381800       18.1647584000       18.6497062700
  H        20.5986417700       18.1924875300       18.8567045600
  H        16.8682973300       14.3689831100       21.5314726600
  O        16.8508374200       15.2803096600       21.3091949400
  O        18.9440836300       18.3311543900       18.2402597600
  O        20.1342288100       18.2893815800       22.1504456200
  O        16.9272534600       21.1181098700       18.9380669500
  O        16.3377078100       17.5702111700       22.5407193100
  O        18.4333553000       20.6082527800       16.5584743100
  O        18.7573847300       20.5805427500       25.7686241300
  O        16.2119377000       17.3953998400       14.7419935700
  O        20.8559276600       21.4014326000       17.9084979700
  O        19.0589709800       21.1633368600       22.8141949400
  O        17.5845506900       17.8172074700       25.1024016500
  O        18.4778419000       16.4224464900       15.9753308800
  O        17.6852582400       19.1076517200       20.4167023500
  O        21.3877169500       18.4431205100       19.3486781900
      42
 i =        1, time =        0.000, E =      -241.0167324828
  H        18.4107123100       16.2046709900       19.6924433900
  H        18.7061327800       17.5303695900       18.3164242700
  H        18.8737537800       17.4676089600       16.7930001900
  H        18.7602056200       18.4678938800       21.4696368600
  H        18.5407601300       19.7531237600       20.6966399300
  H        16.4504766900       21.9148895100       20.1876216900
  H        17.2253979100       20.9892579000       18.9917673700
  H        16.6530552800       17.7826126600       22.4942422900
  H        17.7236125900       17.2841202000       23.5485412200
  H        18.9620620300       20.9584795500       17.8029437100
  H        18.3723626100       19.5354458000       17.5129138100
  H        18.0406776200       19.9277437700       24.6965844000
  H        16.7252012600       19.1473674600       24.9285214700
  H        16.1792644400       18.6938227800       15.4205757600
  H        15.3201760100       17.4051806300       15.5869755200
  H        20.9448857400       20.2650981900       16.6253415800
  H        21.3574299000       20.1185224500       17.9843517400
  H        19.3452067500       21.5706495500       23.1747177800
  H        19.4711523100       22.0966755100       24.6362930900
  H        18.7652793800       17.8944567600       25.3032336900
  H        18.8207547200       16.5568930500       26.0279843000
  H        18.9096762400       15.6225122900       15.4012417700
  H        17.8086572600       16.7101012200       14.9481685700
  H        16.1463954700       19.7304009600       20.7550300400
  H        16.3018747100       18.2369294500       20.5386388200
  H        20.8866251700       18.7291095300       19.8484369300
  H        22.2491644700       18.1684970900       19.6663746600
  H        17.4276173200       16.4068030200       20.6810640900
  O        17.5567803100       16.6434768600       19.7039275700