      48
 i =        1, time =        0.000, E =      -275.4916934253
  H        17.1139246600       18.8242830700       18.5693501400
  H        19.1934672700       20.7233973800       17.4454747500
  H        18.5901090100       20.8894227000       16.0437761800
  H        21.4854970300       15.5187782900       21.9523079800
  H        20.2048287400       15.9686313100       21.2592838300
  H        17.5009212400       22.8940527900       23.2079875400
  H        19.0837251800       23.2492635400       23.1374935100
  H        18.3976336000       16.4807540000       19.6019095700
  H        17.7666632300       16.2449087100       21.0370477000
  H        21.3382928400       23.5254566500       21.6314257700
  H        21.1892796000       22.4344580700       22.5693788200
  H        16.0871377900       18.9556765300       22.7138437600
  H        16.6506955300       18.5612370100       21.2614155700
  H        16.5299283700       18.3721393900       16.3285701100
  H        17.9695185100       18.6789287400       16.7506449300
  H        19.8446509000       21.5097020300       19.3253865100
  H        20.8600670700       20.4006453500       18.7863725800
  H        20.1148849700       17.7835182900       22.4212420200
  H        18.6572477500       18.3875194900       22.5054387000
  H        15.4271759000       20.2935623600       24.5474734300
  H        14.3735064900       20.8442130400       23.5386234000
  H        22.9306017000       24.0218697100       19.2492136100
  H        21.7863672500       23.0114744700       18.9078951100
  H        18.6679213900       21.7177489400       21.5986295600
  H        18.9418634700       20.2685946400       21.2347455300
  H        21.0315207400       19.1349504800       20.5673586200
  H        22.4457727000       19.7429403000       20.3828137400
  H        17.8561361000       20.9917641900       24.2719215500
  H        17.7932403800       19.5583435400       24.5354900400
  H        20.7898970600       20.2436924500       22.7587320900
  H        22.1972345800       20.3961855200       23.4648461400
  H        17.6745550500       19.8207949900       19.6680401600
  O        17.0136591400       19.1321654400       19.4782641300
  O        18.5320197400       20.3043398600       16.8824267700
  O        20.9353395300       16.3180492100       21.9118052700
  O        18.3674568400       22.5101341200       22.9907430000
  O        18.4816968300       15.9400911900       20.3750848200
  O        21.0128395200       23.4456289500       22.5510634200
  O        16.7694908500       18.3936780100       22.2349083000
  O        17.3186952400       17.9556665700       16.7288279100
  O        20.3942493900       21.2385475500       18.5196810900
  O        19.6035092500       18.6332067500       22.4048117400
  O        15.1985376300       20.3021284600       23.5779615000
  O        22.4108650300       23.3080679900       19.6697935900
  O        18.8864373900       21.1180135000       20.8196339400
  O        21.8071635100       19.1732293300       19.9316928600
  O        17.5651743600       20.3881982400       24.9733922900
  O        21.7043112600       20.6618453200       22.6839569500
      48
 i =        1, time =        0.000, E =      -275.4971549178
  H        16.0207128700       19.3506486500       19.8434298500
  H        20.2567046100       19.1912610500       17.2041663500
  H        19.7530687400       18.8319878600       15.7933206500
  H        20.0830279200       15.4281521500       20.6958447900
  H        19.4076301700       16.6361358200       19.8386539600
  H        19.0075869500       25.4939367300       23.4057162400
  H        19.9476348600       24.6537478800       22.5473599700
  H        17.9420265300       17.8495866300       18.9964254600
  H        18.9797900900       17.6445052900       17.9285243400
  H        20.7833333400       22.8252068200       20.7143591000
  H        20.6867823200       22.2092811400       22.2417618400
  H        16.0651846600       17.5778874900       22.7183547700
  H        16.9605260700       17.7722350000       21.5236154900
  H        13.3467179500       20.6091539800       18.8765151600
  H        13.3522454300       19.0117370900       19.1665684900
  H        20.4917430100       20.0799318900       19.8053360500
  H        21.6510942700       19.3361172200       18.9632080000
  H        19.9212141600       17.6241166000       22.1412137900
  H        18.7876129200       17.8260666700       23.0974171200
  H        15.4538561800       20.8140318500       22.5555521700
  H        16.7876470000       20.1311421700       22.1263316800
  H        21.5100570900       21.8508419600       19.0604127800
  H        21.1521845700       23.2757237500       18.6479861200
  H        19.1479612100       21.3449949500       21.5670786800
  H        18.9608744100       19.7916486800       21.9650684100
  H        21.5802209000       17.0659659000       19.7311225600
  H        23.0828172400       17.6308091400       19.5932333800
  H        19.9133217900       23.4992154700       24.5346717000
  H        18.8857451400       22.8723570500       25.6244846100
  H        20.6920231900       21.3719460800       24.3061905200
  H        20.4227833700       20.0690498500       23.4567278400
  H        17.4938210100       19.7671774500       20.2740092800
  O        16.9313543700       19.0279986700       19.9864778300
  O        19.8001560100       18.4599272000       16.6977418300
  O        20.0706229200       16.4449694600       20.5946162200
  O        19.8148326100       25.0205558900       23.4756426900
  O        18.4938813100       17.1263715800       18.6435455800
  O        20.2622965000       22.8474010200       21.6101154800
  O        16.7785505900       17.0346377300       22.2411468300
  O        13.8676254400       19.8444682200       19.3727701200
  O        21.0075065800       20.1313086900       18.9596795700
  O        19.6141051200       18.2068535900       22.9104543400
  O        16.0431489800       20.0219750900       22.7502775200
  O        21.7640290100       22.7726179800       19.2778653700
  O        18.7100224700       20.4863645300       21.3861709600
  O        22.2101399800       17.7130427500       19.2336808800
  O        19.7758764300       22.8025791400       25.2474239000
  O        20.9811828000       20.8826943500       23.4932044500
      48
 i =        1, time =        0.000, E =      -275.4874978264
  H        17.6988461700       20.3669055200       20.6552357700
  H        20.0814962500       21.3410102600       17.6740951400
  H        19.9030106300       21.6910624100       16.1819764100
  H        18.7259410500       15.5725485300       19.6188897000
  H        18.1123100200       17.0034232200       19.0657910400
  H        19.0312841300       23.7367335200       24.6369696100
  H        19.8969274200       23.1450213300       23.5788403600
  H        16.5548003800       18.5696957900       19.1579438100
  H        17.0092836600       18.7764856200       17.7823628100
  H        21.9167470000       22.7016423800       22.9772098100
  H        21.4186837800       21.2685310000       22.9727310000
  H        16.3530970000       18.1629104000       23.2103759900
  H        16.2278187300       18.3142942100       21.7195618700
  H        16.2752420000       21.4752125500       17.8144951200
  H        17.7507879300       21.0412656600       17.5378717700
  H        20.7353872500       20.7812212800       19.6979965100
  H        21.3076492200       19.7314475400       18.7885468800
  H        19.1446251000       17.3458780700       21.0957839500
  H        18.3764850800       18.2151292500       22.2634900500
  H        16.8344546200       19.9112774900       24.8323024200
  H        15.6196674000       18.9892853000       25.4142916200
  H        23.0082946100       20.6498438600       21.2617794600
  H        23.0637938400       20.9991382000       19.7155784000
  H        19.7060879700       21.0832219800       21.6943929100
  H        19.5100359200       19.5872207200       21.2884217600
  H        20.2036199100       17.6763242700       19.1122960500
  H        21.3333219800       17.2362377400       18.1566143000
  H        17.8278173200       22.2935696300       24.3289338400
  H        18.6237164900       21.2022977600       25.3072032400
  H        21.2898771700       18.5815937400       22.0480924400
  H        22.6815521700       18.5990868000       22.6817646700
  H        16.5483116600       20.5422893600       19.7955543800
  O        16.6565451000       20.0572989600       20.6166900100
  O        19.4402605100       21.7608665900       17.0463005100
  O        18.8912929600       16.5739446600       19.5462292300
  O        19.0338671800       23.6127508700       23.6790163200
  O        16.9740653500       18.0298137400       18.4144348700
  O        21.1479728100       22.1594555100       23.2963694000
  O        16.5067957700       17.7098238300       22.3844115800
  O        16.8648314100       20.7215432400       17.9360751900
  O        21.3048310400       20.7018137300       18.9106807400
  O        19.2639280100       18.0326664700       21.8660124900
  O        16.2493998700       19.0653837100       24.6879027200
  O        23.2870147800       21.3859189300       20.6324995200
  O        19.4794202300       20.5260137900       20.9285575300
  O        20.9696897300       17.9943792400       18.6049942200
  O        17.7864407100       21.4410706100       24.8053400700
  O        22.0016484900       19.2302553300       22.3285547100
      48
 i =        1, time =        0.000, E =      -275.4924955728
  H        15.3171650300       19.0538874100       20.5299480100
  H        19.8274561800       20.3505543400       18.1226426000
  H        19.8751601600       19.8499595700       16.5973687700
  H        20.5793285000       15.7834592700       20.4449211700
  H        19.5460206600       16.7172709800       19.7840046700
  H        18.9826816900       24.1566037100       20.6937642200
  H        20.3839777200       23.7922383300       21.3648216900
  H        17.2252964200       17.8229687500       18.5921185800
  H        18.7188364100       18.2380300200       18.4223099100
  H        22.2390426000       21.8487661000       20.8261839900
  H        21.1730090400       22.0770555900       21.9168610800
  H        16.7137977700       17.5413792600       23.3845188600
  H        17.1070658600       16.2475848000       22.7403207200
  H        14.3298524100       17.8175986500       18.4749587600
  H        14.9390978900       19.0917877600       17.9902350200
  H        19.0505353600       21.2553379500       19.9283099400
  H        20.4299667800       22.0772356800       19.7521816300
  H        20.2709604100       18.2407486500       21.7440742700
  H        18.8983862600       17.8800840400       22.5413670500
  H        17.0248092900       19.9736049600       24.6383905900
  H        15.8904698600       20.1410966900       23.5225555100
  H        24.1226035000       20.6320313100       20.4041223500
  H        22.9316211000       19.8854152500       19.5624854000
  H        17.8589219700       21.3900604100       22.2462797300
  H        18.7079654100       20.0568817000       22.0821133500
  H        21.9751863100       17.8173944900       19.5051030100
  H        21.9864603400       18.5694296300       18.2385014600
  H        17.7568927000       22.9328854500       24.4915515800
  H        18.6954582500       23.5205525900       23.3739495400
  H        19.9780899400       21.3789098600       24.0525296600
  H        20.7875135400       20.2000653700       23.3926654500
  H        16.4083977500       19.7361812400       21.2682452300
  O        15.4089230900       19.7494982900       21.2063199100
  O        19.9582827600       19.5425775700       17.5114738800
  O        20.4350198200       16.7262707300       20.1769208600
  O        19.4227626300       24.0197467400       21.5730937400
  O        18.1083571500       17.6678945000       18.9832749300
  O        21.5449544700       22.5527561100       21.1340355300
  O        17.3284033800       17.1702458000       22.7092130300
  O        15.2167225000       18.2789465900       18.4799773400
  O        19.7171632600       21.5353322200       19.2414950900
  O        19.5852869900       18.5406283200       22.4429262500
  O        16.2484584300       19.5808985700       24.1979535600
  O        23.1719243300       20.7834302200       20.0594215900
  O        18.1480370700       20.6916729100       21.5695416000
  O        22.5317164400       18.4786606500       19.0207524400
  O        18.3608885000       22.6052644300       23.7702064500
  O        20.8625687600       21.1116065500       23.6980619100
      48
 i =        1, time =        0.000, E =      -275.5175849627
  H        17.6754470400       19.7254280000       17.5603852500
  H        20.1433823900       20.0867591800       17.6644194700
  H        19.9276891400       19.6112430300       16.2029564900
  H        21.1288466900       16.0205768500       20.3786376500
  H        19.9913932700       16.6986255500       19.4787532500
  H        18.1725617900       24.6208622500       23.7774318300
  H        19.1947695700       23.5419077000       23.3013578000
  H        17.6579292100       17.2352977000       19.0414175500
  H        18.7740822000       17.3095870500       17.8264472200
  H        20.5172340900       22.5940477600       21.3779890200
  H        20.2241662000       21.5951130800       22.6614346200
  H        16.8246000500       18.8861259500       22.7977143200
  H        16.5516381800       17.9709001500       21.4634296100
  H        15.4478475000       17.2228735700       19.3394498000
  H        15.9797654200       18.8056280700       19.0031883400
  H        20.1853060700       20.7048118800       19.6670540200
  H        21.6330132400       19.9273662800       19.3919883600
  H        20.0658920000       17.8611247100       21.7376743100
  H        18.5247525000       18.1558467800       22.3273325400
  H        16.8978643800       20.7552216700       24.2859464800
  H        15.3621597500       20.0524715100       24.1728095000
  H        22.5611186700       23.5065467000       19.3595763400
  H        21.5648702600       22.2800522400       19.5101231200
  H        18.6791812600       21.1784367800       20.9760836400
  H        18.6710500200       19.5673414600       20.8917957100
  H        21.8796347400       17.9655016300       19.5348958600
  H        23.0664581000       18.6695124100       18.5143578800
  H        18.2509775600       22.5080090000       25.2211565700
  H        18.1473885900       21.6278343600       26.5048652200
  H        19.8631901200       20.5202623800       24.4079788200
  H        20.4082369200       19.5318595200       23.3335581300
  H        17.4477847500       20.3348684300       18.9724759800
  O        16.9584287300       20.0958932900       18.1302342900
  O        19.8561287100       19.3205118400       17.1498689600
  O        20.9038350900       16.8602072600       19.9077205000
  O        18.7387125000       23.9567734300       24.1101028100
  O        18.3922217300       16.7554047800       18.5800459200
  O        19.8282151700       22.2693825400       21.9876950400
  O        17.0632734200       18.0695672800       22.2780382600
  O        16.1197338300       17.9628670100       19.5334314000
  O        20.9994566400       20.7199997000       19.1246941600
  O        19.5282444000       18.4731420600       22.2053824700
  O        16.2595317000       20.1006381900       23.6955901900
  O        21.7131650200       23.3025964100       19.7936424700
  O        18.3340766400       20.4111301600       20.4464010900
  O        22.5830082100       18.7030060800       19.4225774500
  O        18.0096222800       21.5977468100       25.5538959900
  O        20.6554519400       20.3738754900       23.8518641800
      48
 i =        1, time =        0.000, E =      -275.4960172565
  H        16.3740319400       18.7079107400       20.7568153800
  H        20.3542195300       20.1880698000       17.1392562000
  H        20.1336648300       19.4584821000       15.7674581900
  H        20.3658001000       15.9396787000       19.0960801500
  H        19.2619292200       16.9595018300       18.8463312400
  H        20.0298603500       24.4515544400       23.5178198000
  H        19.4251680200       23.7240330100       24.7654547500
  H        17.6760414200       18.0590029500       18.7171057400
  H        18.6850618400       18.3877779600       17.5516643200
  H        21.1736219400       22.9665648300       21.7354073800
  H        21.6428342500       21.6312751500       22.4841531300
  H        16.4647132000       18.5185786100       23.5383940900
  H        16.2106990000       17.1956045600       22.8836090900
  H        15.8216452300       19.1831121200       16.9865709200
  H        15.3399903500       19.8230093900       18.1795604300
  H        20.2070200100       20.7490979300       19.5176771800
  H        21.5318882100       20.3983446600       18.6770233700
  H        19.5018673800       17.1845788100       21.3900875000
  H        18.1546794300       17.7292877400       22.3145391100
  H        16.6774531700       19.7692508900       25.7938010800
  H        17.7274828200       20.2118994900       24.7032702800
  H        21.3494954200       22.7672742600       19.4084472200
  H        20.9108351900       24.2928002700       19.6953170200
  H        19.6255099500       21.0697692600       21.6441379500
  H        19.2729812800       19.4873998000       21.3880189700
  H        21.0978906300       17.7889354400       19.4913081000
  H        22.4259762200       18.3890004100       20.1353999700
  H        19.4896031000       22.0070125500       23.8955110500
  H        19.8903349300       20.5465275100       24.4351274200
  H        21.1995947200       18.4965404800       24.2064306000
  H        20.0160546400       18.5736312700       23.2871310200
  H        17.4140885400       19.6545698600       20.2182367300
  O        16.7269388800       19.0450894500       19.9083844100
  O        19.6349801000       19.7407891300       16.5575622600
  O        19.9771170900       16.6662595100       19.5386473500
  O        19.2421682900       24.4968484900       24.1139656700
  O        18.1455747800       17.6867331600       17.9518114300
  O        20.9704148900       22.3723930100       22.5383222300
  O        16.6515077400       18.0470702900       22.6736927100
  O        14.9650332800       19.4804350700       17.3271404200
  O        20.9117853200       21.1137938200       18.8590806600
  O        19.1914850400       17.8989124600       22.1014226900
  O        16.9273826300       19.6104324400       24.8997345700
  O        21.5016649200       23.5688028300       20.0171639500
  O        19.2359417400       20.4011760100       20.9807235400
  O        21.7649418000       18.5047063600       19.4244631900
  O        19.3683417500       21.4127105200       24.7089232600
  O        20.4738082000       19.1006045400       24.0767459800
      48
 i =        1, time =        0.000, E =      -275.4530222861
  H        17.2472062400       20.5418073100       20.1484434200
  H        20.3150707800       20.1869706400       17.4011736500
  H        19.7442609600       20.3782422500       15.9254780300
  H        19.5217783200       18.2045448000       20.8789784400
  H        19.6822561600       19.4369793000       20.0148140700
  H        20.4450205300       20.6057446300       24.5482217600
  H        20.4031483900       22.0281199900       24.9385745000
  H        18.7784843100       18.3578122200       16.8871677600
  H        18.9207945200       17.4736168100       18.0451111400
  H        21.7200603600       21.4565609700       19.2076516000
  H        21.7824828100       22.7098675100       20.2035028400
  H        16.0405338300       19.3781488400       23.8088141000
  H        16.4951323700       19.5535595600       22.2419065600
  H        14.6946240800       16.8225170700       18.9033512000
  H        15.6454573500       17.2657095900       17.8135512800
  H        22.5318365900       20.2255928200       17.0872734200
  H        22.1459044600       19.1607025000       18.1302435200
  H        18.1786563500       19.0031211400       23.0875653200
  H        19.4364208600       18.1136987400       23.6073131800
  H        14.1604668300       20.6216745500       25.2393180600
  H        15.6679231600       20.8038359400       25.7301951500
  H        23.2314495400       23.2599758500       23.0502684400
  H        22.2669747500       22.2231015800       22.2315319000
  H        18.9154409300       21.5531532100       21.1653370500
  H        19.4415793300       21.9629419900       19.7295283700
  H        23.4035861400       17.5288137400       18.6812365800
  H        21.8723762400       17.3874270700       19.1105915600
  H        17.4395820900       21.5136247000       26.9824173700
  H        18.2899865100       20.7240909600       25.9533874300
  H        20.4097215600       20.1842094300       22.4245271800
  H        21.6461291300       19.9274871500       21.6448103000
  H        15.9047146000       19.6895662300       19.9344423000
  O        16.5573939700       19.9971271300       20.6116692400
  O        19.5251130400       20.2939135200       16.8387304100
  O        19.8466650200       18.4611718800       19.9776485600
  O        19.8373561200       21.1918176300       25.0513476300
  O        18.3990865800       17.4929767500       17.1913783000
  O        21.2023910600       22.3062785400       19.5411934700
  O        16.6349029000       18.9997591100       23.0777275700
  O        14.7303179000       17.4450079300       18.1921455500
  O        22.0125349100       20.1712228700       17.8944332500
  O        19.1743889400       18.7745216200       22.9484582600
  O        15.0392839900       20.1976556300       25.2469195100
  O        22.9724831100       22.9099284600       22.1323391700
  O        18.6698149900       21.4855216900       20.2229758100
  O        22.5044725200       17.5542725200       18.3915676300
  O        17.3745498500       20.9572935000       26.2031569600
  O        21.1499254000       20.6579646600       21.9929391000
      48
 i =        1, time =        0.000, E =      -275.4803811983
  H        14.8961342900       19.8637965600       21.2078416000
  H        20.5820100300       17.5176717300       16.4782160800
  H        21.0945984600       18.9865808200       16.2330063800
  H        18.9525462000       18.3065096700       19.4202112400
  H        18.0592825200       17.2516155200       19.8596297900
  H        19.3529680600       24.3497072000       23.9756085200
  H        18.3370883900       23.2615554700       23.5114336400
  H        18.7085677800       20.1582920900       18.2750433100
  H        18.9408327400       18.9767001900       17.2287726600
  H        20.1985888300       22.9409962200       21.1889847500
  H        20.0714321100       22.0001215200       22.4554391100
  H        17.1285465200       19.3112727100       23.6569300000
  H        16.8729567500       19.3998750400       22.1276980800
  H        16.6457394500       18.5728510000       18.0111048100
  H        15.4037614800       18.4574617200       17.1533477800
  H        21.1762117300       20.0533584400       18.7776430500
  H        22.7158335200       19.8914234900       18.6855303000
  H        20.1147630600       17.4802082300       22.1649024200
  H        19.0678004800       18.6018590000       22.6193356800
  H        17.7359074400       20.6080279400       25.6799239800
  H        17.1193553900       19.1657122100       25.7645999000
  H        21.4692708100       21.7954782600       19.1703735800
  H        22.4852488800       22.7067011000       19.7574397700
  H        19.5050824400       20.8347456300       20.6146064200
  H        20.2418486100       19.6559896500       21.1308701600
  H        20.0318380900       16.9728802500       18.6555468200
  H        20.7916338900       15.7614255400       18.4029879400
  H        18.7891017100       22.4202650900       25.4758534200
  H        19.9534420800       21.3541200900       25.4337926300
  H        21.5591791900       20.0917661600       24.4128657300
  H        20.4301625800       19.5434269700       23.5993659500
  H        15.6271853400       19.3096959200       19.9239509800
  O        15.7470271300       19.6048210600       20.8434239000
  O        20.3543841700       18.3560426900       15.9779496400
  O        19.0045665900       17.4573016200       19.9300637500
  O        18.4313705700       23.9742427300       24.2109550500
  O        18.4504526800       19.2364717700       18.0359326700
  O        19.4913810300       22.5288398000       21.7590340500
  O        17.5778049500       19.1855581200       22.7872339100
  O        15.6551137700       18.7069358200       18.0636410800
  O        21.9518145300       20.1288970600       18.1704957300
  O        20.0641745300       18.2897418800       22.7020347300
  O        16.8802031800       20.0742051200       25.4026379300
  O        21.5035284200       22.7194280800       19.5795463900
  O        20.1184620900       20.1509616900       20.3188547600
  O        20.5481349300       16.5695362800       17.8916627200
  O        19.2671766800       21.7146093500       26.0220670500
  O        20.7312630900       20.3677619700       24.0524555600
      48
 i =        1, time =        0.000, E =      -275.4859734695
  H        16.4676485900       18.8295579100       19.0838879200
  H        19.1151527900       20.5530459500       16.7292020000
  H        18.3566820300       20.1642804500       15.4106396800
  H        21.5197228400       16.3252984500       19.6422888000
  H        20.4047934100       17.4741207600       19.6396772900
  H        18.4628659800       24.7186221700       24.3858655900
  H        18.6895223800       23.5373687900       23.4597606200
  H        18.3039971900       17.8527245800       18.8667739100
  H        19.0933333700       18.4500017100       17.6346200900
  H        20.2199760600       21.7210215600       22.7783883600
  H        19.4876225700       22.0984942900       21.4243387200
  H        17.2634043600       18.0889159800       23.8835088700
  H        17.1479031400       17.0983745200       22.5940684200
  H        15.4050693900       20.0945005100       16.7456053300
  H        16.8874233400       19.7027745200       16.7947083500
  H        19.1141030300       20.3138961300       19.1086302800
  H        20.5862129200       20.4143082600       18.8551246800
  H        20.3033916000       17.2298324500       21.8689451000
  H        19.1762181200       17.3758202900       22.9786859900
  H        17.2350917900       20.4394001100       24.5086312500
  H        15.6897192700       20.0936127600       24.1586539000
  H        21.7346084700       22.2274116900       19.9918870800
  H        21.6999353600       23.7341962900       19.7652991300
  H        17.6083618100       20.4850887400       22.3302302100
  H        18.8380688100       19.5051934700       22.1353763800
  H        23.0952729600       19.2678426800       18.7719952000
  H        22.0322549600       18.8537251200       19.8121909100
  H        18.3674519300       22.1919814400       24.9045975300
  H        19.3111202200       20.8365793900       24.6482151200
  H        21.8272997000       20.5619669800       23.9900641100
  H        20.8472280700       19.3884873400       23.3150107400
  H        17.1739125600       19.2008914100       20.3747191900
  O        16.8940587900       18.4418846200       19.8851783100
  O        18.8979220900       19.8053788000       16.1540028500
  O        21.2115477300       17.0912060600       20.1125045100
  O        18.1194189500       23.8063070500       24.2188336400
  O        19.1782298700       17.8147182100       18.3769511000
  O        19.9393770000       22.4381470400       22.1592340200
  O        17.5455836800       17.1944032500       23.4950249300
  O        16.0487203800       19.6386038700       17.2864563900
  O        19.7492624800       20.8738470100       18.6079620400
  O        19.8662241800       17.8284518700       22.4490679100
  O        16.6554649500       19.8085513800       23.9904200800
  O        21.9679754200       22.9232455000       19.3021507400
  O        18.1688104100       20.1470817900       21.6346160400
  O        22.3546709100       19.6528012900       19.3411342800
  O        18.4289442200       21.1500906800       24.9346811100
  O        20.9140511100       20.2473075000       23.8288325000
      48
 i =        1, time =        0.000, E =      -275.4730681121
  H        16.7338969900       18.7123874200       20.3262065800
  H        19.0333030800       19.7847853300       16.6530166600
  H        20.1731064400       19.6419126000       15.5582282600
  H        20.8068672800       15.9948536700       20.4623481800
  H        19.3919101200       16.3983763500       19.7490613800
  H        18.1405880200       24.1372289300       23.8949729900
  H        19.1611108600       22.8702141600       23.8164817000
  H        17.1429333800       15.9027389000       18.5507019000
  H        17.7659810000       17.3308436600       18.3268998500
  H        20.7809941500       22.3368904500       22.0075108800
  H        20.7542583800       21.6749695400       23.4367493200
  H        16.8184620000       18.8010420900       23.5864737900
  H        16.7703853000       17.3517989300       22.9834367200
  H        17.3698085800       19.2124875700       18.2095800900
  H        16.7949884000       19.0446661200       16.8217806400
  H        21.1891631900       20.7162014500       17.7455205800
  H        22.3645653600       20.5021672900       18.7281477600
  H        19.9755063600       18.0800914900       21.4673573900