      30
 i =        1, time =        0.000, E =      -172.1716702271
  H        18.9129056600       17.4868104000       17.9439910200
  H        22.0620901700       17.8975975700       20.3210511200
  H        23.1773939000       17.5952608800       19.3095144600
  H        16.9710707800       17.4325053100       20.8225951200
  H        16.7807133100       17.5448334800       19.2800978400
  H        19.1245155800       22.3352519200       19.0379782200
  H        19.4964208700       22.8404064300       20.5146518200
  H        19.9241966200       16.0032655400       19.9842099100
  H        18.5877299900       16.6999175300       19.9175470000
  H        19.2178642900       22.2879799300       16.3489034200
  H        19.8680408800       21.2535853900       17.3824279900
  H        17.4303789400       19.0924118500       17.7463579800
  H        15.9953619200       19.8378060300       17.9885308500
  H        21.6207193300       19.1805239600       18.4524107900
  H        20.6482886100       20.1495624400       19.1243452400
  H        20.1429682200       17.5529296900       21.0490787000
  H        20.3592828500       18.3312331400       22.2562841000
  H        18.9417356000       20.4437755800       20.5976828100
  H        17.7986861200       19.7249430700       20.1011475800
  H        19.3764453300       18.8850511400       17.4297796600
  O        18.6209469100       18.2091382000       17.2785021700
  O        22.6289903300       18.3169293400       19.6779002900
  O        17.0303354600       16.9142785100       19.9812328300
  O        19.2112688900       22.0402169100       20.0270298900
  O        19.5116703200       16.7664671500       19.5712535400
  O        19.2757980400       22.0287613800       17.2751466200
  O        16.7131019700       19.3458784800       18.3798069200
  O        20.9475273000       19.8585600500       18.2359145300
  O        20.8796690700       17.7356134900       21.6879018200
  O        18.5339044300       19.5774445800       20.8113851900
      30
 i =        1, time =        0.000, E =      -172.1741960727
  H        20.8120635300       18.3931594500       15.9066302800
  H        21.5554068300       19.3402606600       21.8677961100
  H        20.3073748500       18.5094356500       21.5208266300
  H        19.4854077400       14.8037410300       21.1424600600
  H        19.3392989800       15.8266308300       20.1104014800
  H        18.7016558500       23.7019943700       18.0079301200
  H        18.6687216800       23.0461837700       19.2923870500
  H        20.8444832100       17.2792938500       18.6856375200
  H        21.3312927600       17.2136499700       20.1920185700
  H        20.3486281000       21.3380917900       18.1719193200
  H        20.5674698600       21.5736131700       16.5777997500
  H        18.3209602500       17.7615798600       17.1485208400
  H        17.1634853000       16.8287871700       17.5167285300
  H        20.6882981100       20.3641317500       20.0711876000
  H        19.2478659600       20.8877715700       19.7166884800
  H        18.5706388000       16.8631468900       21.6254061800
  H        18.2415708100       18.4884131000       21.3939419600
  H        16.7049776900       20.5322525100       19.8132982100
  H        17.5940251300       19.5432092500       19.1041915000
  H        20.2460100500       19.4447925400       16.7828630200
  O        20.2727119400       18.4246731500       16.6882424300
  O        21.1759703700       18.8490496700       21.1243457800
  O        18.7644979700       15.3547047800       20.7531713300
  O        18.0271383900       23.5184453400       18.6907844500
  O        20.9289350200       16.6471171100       19.4736891400
  O        19.9661502300       21.2009077000       17.2435774900
  O        17.4151128200       17.7780042400       17.5706897000
  O        20.1827041800       21.1599420300       19.6728727400
  O        18.8934358300       17.8416819700       21.8383737700
  O        17.5814688600       20.0714026500       19.9308077500
      30
 i =        1, time =        0.000, E =      -172.1786684069
  H        16.5722884600       19.2253243100       18.5706018200
  H        21.3155673900       18.2023359100       20.0300347600
  H        20.7867390300       17.4935454500       18.8069781700
  H        18.4456935400       17.5210009500       21.4332840600
  H        17.8829620200       17.2799765400       20.0378474300
  H        21.5483925800       22.7189332400       19.6794065800
  H        21.3635236500       21.6652324000       18.5128343600
  H        19.0589072900       16.7175339700       17.1068686500
  H        19.0973957200       15.5231741000       18.0919793200
  H        22.2685076800       20.6986024100       16.5916865300
  H        20.6436836900       20.4305777200       16.9350115700
  H        14.7228792100       18.5650979300       19.8931878600
  H        16.1634126800       18.2840529200       20.6297752700
  H        20.0593004900       18.9866032800       17.9372782200
  H        18.6709183000       19.6257450600       17.5164604000
  H        20.0845636200       19.0055848600       21.8386089900
  H        20.8147502100       17.8414985700       22.5417016400
  H        20.5360751600       20.9514012200       20.8744069700
  H        19.0644324300       21.0092050500       21.3136826400
  H        16.6199947600       19.2489443000       16.9720083600
  O        17.1519735000       19.2194014500       17.7959960300
  O        21.6111397200       17.8760323700       19.1470135100
  O        17.5638362800       17.3300033300       21.0000340600
  O        21.2335678600       21.8119222100       19.5219514600
  O        19.0744951700       16.5087084500       18.0421281600
  O        21.3905819200       21.1533713500       16.7925437000
  O        15.5741351000       18.9718523700       20.1749259700
  O        19.5977401400       19.4152713600       17.1690180300
  O        20.2934957600       18.0282994100       21.7489902700
  O        19.9074098300       20.5780527000       21.5520550800
      30
 i =        1, time =        0.000, E =      -172.1789870118
  H        19.3588808200       17.4958899700       15.7465576900
  H        22.6292418200       18.0264085600       20.0424929700
  H        21.1853877600       18.1118976500       20.6957195300
  H        16.7796436200       15.6474043400       20.4624693500
  H        18.1101542800       16.2515064200       20.1317780100
  H        19.4956209100       24.3045096200       20.2239197200
  H        20.0257530000       23.3507062800       19.1229476300
  H        18.3446850900       16.3723658800       17.4344667300
  H        18.5693666500       14.8141052600       17.6512977900
  H        21.3625005600       20.9399645500       18.3088589300
  H        21.8915532000       22.0469090200       19.3030726800
  H        16.7717102300       18.2951711100       20.1198494000
  H        16.6281502600       18.9030101200       18.6725086500
  H        20.8938457200       18.7650890300       18.8185909200
  H        19.7705432600       19.8547379200       18.7574907800
  H        19.2893376200       18.0700539300       21.4721160200
  H        19.7115202500       19.5953834800       21.4053352900
  H        19.2181575900       21.7190181800       20.0821281200
  H        18.0552981000       20.5886394600       20.0676797100
  H        19.4841101900       18.1640359100       17.2321476800
  O        18.8441726100       17.7527454100       16.5637778100
  O        21.6976226100       17.8442779000       19.8704046400
  O        17.4335043200       16.3075990800       20.8692159700
  O        19.2146231800       23.5919743000       19.6443216300
  O        18.1506547400       15.6066047700       18.0818799400
  O        21.5444031900       21.8770831000       18.4145836400
  O        16.9624618200       19.1191682000       19.5321934900
  O        20.3610968000       19.3309773100       18.1546383800
  O        20.0571029700       18.6969023800       21.5589828400
  O        19.0158309400       20.7452678200       20.2270758100
      30
 i =        1, time =        0.000, E =      -172.1670945878
  H        19.0389544500       18.9435431800       17.4274529300
  H        22.3220999800       17.9928659000       20.1473653100
  H        23.4812182200       17.4089673500       19.2651782200
  H        18.3204039800       18.8987425900       19.9712041100
  H        19.2428226500       17.5086271600       19.7264435700
  H        19.2828127100       21.1291983600       18.0727274500
  H        18.5258035000       22.4829460300       18.5651471500
  H        20.8303458700       16.4320025500       18.8354091800
  H        19.9379151600       15.6002758900       17.9934492200
  H        19.3126530100       21.4489822800       21.6264256800
  H        19.8489653400       21.4133274900       20.1701601200
  H        14.7550708500       18.7053509700       17.7921319800
  H        16.3354334200       18.6350125600       17.7182000600
  H        21.4752332500       19.6173052900       18.0126210800
  H        20.1866157300       19.0448740000       18.9343176200
  H        20.8668564200       18.6524855600       21.3355657000
  H        21.3953300900       20.1491505800       21.1884220600
  H        16.9088733600       20.6803046000       19.5087961300
  H        16.0819414600       19.4247046800       20.0979327200
  H        18.6864927100       17.5145823700       17.0300228500
  O        18.2706415400       18.3834828400       17.1612718400
  O        22.5851735900       17.2511498600       19.5569668200
  O        19.2345032400       18.4883984400       20.0597211400
  O        18.4227784000       21.5307829300       18.4550648300
  O        19.8959416100       16.2467511700       18.7514726600
  O        20.1936251500       21.6396083400       21.0901899700
  O        15.5673879900       18.6103705300       18.3778697800
  O        20.4980760800       19.6223792400       18.1368181100
  O        21.7258271700       19.1451369900       21.2628332900
  O        16.9341172600       19.9314526100       20.2118195100
      30
 i =        1, time =        0.000, E =      -172.1953766082
  H        18.1303038000       17.9142858100       16.3225300800
  H        21.6297057500       17.6879283600       20.6074461300
  H        22.1682713700       16.7093580700       19.6460385900
  H        17.1676526500       17.9879441000       20.9963426500
  H        17.6871094600       16.5684291700       20.4996275300
  H        19.5368786600       23.8217510700       19.6413808700
  H        19.7587595300       22.7082224600       18.5190965000
  H        18.8837466000       16.6660181700       18.5230215300
  H        19.7634672500       17.0632804700       19.7133081000
  H        21.9951259700       22.2670571800       17.4434857100
  H        21.1112529700       21.0133968300       17.4737555000
  H        17.0611001700       18.7700335100       18.3995832400
  H        15.7992857600       19.6462159900       18.7809447800
  H        21.2037329600       18.7732278500       18.4056430500
  H        20.0115818200       19.8561483300       18.8386062200
  H        19.1402049200       17.2664891000       21.8186529600
  H        19.5742850100       18.6183128800       21.1794035800
  H        19.0910981500       21.2697583600       20.0663027200
  H        18.0339492900       20.1816946100       19.7417471200
  H        19.1071699600       18.7164975300       17.2543035800
  O        18.2936056200       18.0993646900       17.2551394200
  O        22.0502556300       17.6712511400       19.7376978400
  O        17.3123618000       17.0269992500       21.2555132600
  O        19.2050909900       22.9283802300       19.2793463100
  O        19.3883413600       16.2209094800       19.2811442500
  O        21.0766714400       22.0128618500       17.3826823000
  O        16.5960366100       19.2361866200       19.1268021400
  O        20.5253248900       19.4057216400       18.0592274400
  O        19.9171539700       17.8569968400       21.6207235300
  O        18.9620427800       20.2759975300       20.0372581600
      30
 i =        1, time =        0.000, E =      -172.1784770308
  H        20.5945625900       17.1119146900       16.6580788000
  H        22.0301232700       17.7104701200       21.3354546000
  H        20.5115848700       17.8494030000       21.4850174700
  H        16.5352894200       16.9116651600       20.1409928800
  H        17.8956644800       16.3038081000       20.3854339800
  H        19.1228634700       23.8251469400       19.7949241500
  H        20.1577029700       23.1136618900       18.7382121300
  H        20.2314739900       16.0107367400       20.2612880900
  H        19.7975682100       16.2462735900       18.7830009400
  H        22.5582395600       22.3792110200       18.1768463300
  H        21.4665066500       21.4064274900       18.6434910700
  H        17.2585562200       19.3511706000       17.6261273500
  H        17.4073010300       17.9102277300       17.0294546500
  H        20.9999599300       18.9137438200       19.3891364500
  H        19.6573690700       19.6450176500       18.8436260500
  H        18.4317032500       17.9372468800       21.7816091000
  H        19.0019143600       19.2864279000       22.2301249200
  H        18.1981955800       21.7276397400       18.9127124100
  H        17.0802151700       20.6353020600       19.5421650900
  H        20.1125389200       18.0868268200       17.6081297200
  O        19.7855655400       17.2251250800       17.2090559400
  O        21.2159688800       17.7260468600       20.8012291400
  O        17.2585724200       16.9930381200       20.7317235200
  O        19.2074934300       23.3956669000       18.8654464100
  O        19.4948196800       15.7902326300       19.6307256200
  O        21.6895086700       22.3706830100       18.6126285400
  O        16.8717730900       18.6879842300       16.9921854900
  O        20.6464784900       19.5100991900       18.6582470800
  O        19.1243935300       18.3320731500       22.3379503500
  O        17.8940396800       20.7757795000       18.9761686100
      30
 i =        1, time =        0.000, E =      -172.1738214396
  H        18.6439784900       19.3265279800       16.0254029800
  H        22.0932367800       17.1867815200       20.1544795900
  H        20.5463862800       17.3979224600       20.7664656400
  H        17.6889908500       14.7868345400       19.6972908700
  H        18.4543279400       15.7796348900       18.7798148200
  H        19.4551149100       24.2815889700       20.1545882800
  H        20.0402099300       23.1441522600       19.3083052500
  H        19.0495810300       16.9441085700       16.9598504700
  H        18.9891470400       15.6825746400       16.0643089100
  H        22.1154898000       22.4469243000       18.2165100500
  H        21.0700519900       21.3170513900       18.7303440400
  H        17.0556254100       18.1958065300       19.1702524900
  H        17.3690648100       19.4962493800       18.5163485600
  H        20.7159100600       19.1336420400       19.3417089500
  H        19.9089022400       20.4140787500       19.6683172200
  H        18.7718394000       16.3712454400       20.8334806900
  H        18.6258335000       17.8279279900       21.4240086600
  H        18.9494067100       21.9979385700       20.8896402400
  H        18.0629167500       20.6188161400       20.6932776500
  H        19.3690398000       19.2982752700       17.4839937200
  O        18.8788615900       18.8323436400       16.8114109000
  O        21.2454558400       17.6783982300       20.0360820100
  O        17.9294393600       15.7468861300       19.6148777200
  O        19.2465453300       23.3652861300       19.8701704700
  O        19.0671566700       15.9302211200       17.0039029500
  O        21.4510228700       22.2944576800       18.9066664300
  O        17.2024525200       19.1424218300       19.4641197900
  O        20.3292331000       19.9788338300       18.8609510500
  O        19.0351945400       16.9610419400       21.6424513400
  O        18.9339393400       20.9218380500       20.8874542300
      30
 i =        1, time =        0.000, E =      -172.1734534507
  H        16.7984326500       18.8753394000       16.7970888500
  H        22.0843285100       17.8297519600       19.1407371800
  H        20.8223995000       18.6009952200       19.6066102500
  H        17.4374850800       17.3746152300       20.6969808100
  H        18.5535395300       16.4094040500       20.4414808700
  H        20.9864524900       22.8442227800       21.0516289000
  H        20.7667843300       22.0280882600       19.7949531800
  H        18.8020304600       15.4663020000       18.0207407700
  H        19.9258065300       16.4312944700       18.4831498500
  H        22.2647317200       21.4454631900       18.0018486800
  H        21.9647764600       20.1672855000       18.6165118600
  H        15.4869604300       18.0411095000       19.7346167000
  H        16.7402604100       18.3577808900       18.8733839200
  H        19.9925348200       19.2455914200       17.1695739400
  H        19.1819989200       20.2342753200       18.0705300000
  H        19.5777767600       18.1465896900       21.2697790100
  H        19.7004849800       19.6198572500       20.5346792800
  H        18.7642771500       21.6382298900       20.2576510400
  H        17.8493514800       20.6477629800       19.5807664700
  H        18.1515700500       18.5705932800       17.3354239600
  O        17.2508000600       18.1756147800       17.2958677500
  O        21.3755753200       18.3601396000       18.7241323200
  O        18.1580542800       16.8548987400       21.2164203600
  O        20.2914206600       22.7214599500       20.3812647400
  O        19.3674048600       15.6957205500       18.8027167300
  O        22.2689191600       21.0551642700       18.8921440400
  O        16.3435027600       18.4648300300       19.8352232500
  O        19.2980290100       19.9234058900       17.1092920800
  O        20.2387829400       18.8411698200       21.0481333700
  O        18.7975700500       20.7387560600       19.7551058600
      30
 i =        1, time =        0.000, E =      -172.1709732936
  H        19.6574006800       17.8216564800       16.4293990500
  H        23.2068949500       18.3211687500       19.6837409800
  H        21.8500680900       17.7511638600       20.0549260800
  H        18.9945102700       17.7875869500       18.7214018500
  H        18.2978101900       16.4808977700       19.2112877300
  H        18.4343233000       23.2253152000       20.6688831100
  H        19.3153113700       22.6819499000       19.3869010800
  H        16.4651973600       14.6329287200       19.7505744200
  H        17.0996626400       13.8962953700       18.8154182900
  H        21.5651143800       23.0256424400       18.1742054200
  H        20.6307096200       21.7216127500       18.1343566600
  H        17.1985588200       19.1043928800       18.2147455800
  H        17.0379513700       20.5509086700       18.8184876100
  H        21.2422949100       19.4352064600       18.7425956300
  H        19.8458838900       19.8667709300       19.4998105800
  H        19.8443439400       17.3164020100       20.6659796100
  H        20.4855282800       18.4328650500       21.4273158100
  H        18.7882773600       20.7788227900       20.9472460500
  H        18.2493957600       19.3466195800       20.7043677800
  H        19.5293128500       19.1978649400       17.2155288600
  O        18.9835137800       18.3747567000       16.8975975000
  O        22.2473739000       18.2307079800       19.2799639000
  O        18.5149225500       17.3916241000       19.4945139500
  O        18.6788682200       22.4219402900       20.1337871900
  O        17.1495169500       14.8156571900       19.0865506500
  O        20.6223843400       22.7201676300       18.2313484900
  O        16.9279795600       19.6216257000       19.0171678400
  O        20.3903412200       19.9542178800       18.6135279200
  O        20.7020792500       17.4779270200       21.2356767300
  O        19.0542181600       19.8602418500       20.9574500000
      30
 i =        1, time =        0.000, E =      -172.1633834289
  H        18.1488504000       18.8417708600       17.6864834000
  H        23.1033054400       17.3185638600       21.0450906300
  H        21.4715979000       17.5592949700       21.1009965100
  H        18.1897133000       14.8132499300       19.3181403600
  H        19.2408135200       15.9896910700       19.2016839600
  H        18.0501092700       23.7238553100       20.0741321300
  H        18.7209327400       22.7598617200       19.1562927600
  H        20.0433756100       17.7195940500       17.6166040500
  H        21.3009645600       17.2050904100       18.4396701900
  H        20.0293356400       21.6124692700       17.8227147400
  H        20.7538135900       22.2576176500       18.9986708300
  H        17.1147085800       16.9007202600       18.6623133000
  H        15.9623747400       17.8712838200       18.7425893400
  H        21.9817380000       19.5647889700       19.2392023900
  H        20.8717299400       19.9945591400       20.3338062100
  H        18.9761334700       17.1523137600       20.7977016000
  H        18.8275190600       18.6645833100       21.2256384000
  H        17.7820564900       20.9796411100       20.4280094300
  H        17.9589023600       19.7702153000       19.4710878800
  H        18.3621206700       19.8066699800       16.7239365600
  O        18.8921026700       19.4709727000       17.4729197100
  O        22.3620458400       17.7863892500       20.6101827900
  O        18.2838890800       15.7513209900       19.4545617600
  O        17.9871589700       22.7827465700       19.8411802400
  O        20.5642186400       16.9409143700       17.8123812600
  O        20.0001492300       22.4389085800       18.3608094800
  O        16.7271795700       17.6507204700       18.1738944700
  O        21.2872571000       20.2226223600       19.4311075200
  O        19.4828753200       17.8697561100       21.2902529300
  O        17.7377774800       20.0093432700       20.4487824300
      30
 i =        1, time =        0.000, E =      -172.1999614073
  H        18.7451978000       19.1690840500       17.0920072200
  H        22.1308395500       16.6831993700       20.6163398800
  H        20.6782143500       17.1186586900       21.0508386700
  H        16.6988610100       15.8309450200       19.2825175700
  H        18.1390785200       16.2724848100       18.7015665500
  H        18.7572601200       23.1765414700       20.7940109000
  H        19.0992169000       22.5071581800       19.4482182500
  H        19.7717170100       17.3912319600       17.6570294100
  H        20.4638976700       16.7234335700       18.8499420500
  H        20.1745960300       22.1155229100       17.0826945100
  H        20.7392094300       21.5807938600       18.3710787600
  H        16.4855428900       19.7689337000       18.4129901400
  H        17.1048471200       18.2768426000       18.8053572000
  H        21.5378020600       19.3663734500       19.2353031800
  H        20.0192729400       19.7566041300       19.7396901300
  H        19.0498883600       17.3304430900       22.9329964500
  H        19.1599836100       18.3711980000       21.7324464600
  H        18.5756367400       20.8256733900       20.6314377300
  H        18.1430413300       19.5530782000       20.0597900400
  H        20.2035498300       19.4213854900       17.5353283100
  O        19.6405818900       19.0868607300       16.7415477700
  O        21.3703152800       17.2070322900       20.3248326800
  O        17.2462117900       16.5900742800       19.0127056300
  O        18.4370918300       22.4788561100       20.2188890200
  O        19.7990893800       16.5286596800       18.1285450600
  O        20.6072835500       22.4577785700       17.8789083400
  O        17.2736386300       19.2524255000       18.5972011800
  O        20.7651620900       19.8976382700       19.0245026700
  O        19.4568424600       17.5097497700       22.0748202500
  O        18.8048256200       19.8683902500       20.7714627500
      30
 i =        1, time =        0.000, E =      -172.1652772757
  H        17.8907578800       18.6462702100       17.1926617300
  H        23.0559391600       18.2185263900       20.2957915200
  H        21.6126643700       18.5444328700       20.6971665700
  H        19.4408941100       17.2706362400       21.2136272400
  H        18.4384142200       16.1612945500       21.2257364700
  H        18.4688755700       22.9462591800       19.7944061800
  H        18.3251896700       21.4344433700       20.3016532400
  H        19.3509410300       16.7037951700       16.9929017800
  H        18.7846987400       16.3467665800       18.4529918600
  H        21.6874068800       20.4889863400       19.6849779900
  H        20.5504293100       21.6366950200       19.5259081300
  H        16.8150017200       17.4865315400       18.2543801300
  H        15.6427350100       18.5063995700       18.2777200200
  H        21.1343607000       18.5344132000       18.0049473000
  H        20.9416594500       20.0684992200       17.8622673800
  H        19.9717685900       19.6321913200       22.3891643500
  H        19.2256641600       19.2354444300       20.9784754700
  H        17.8089971900       19.7996163700       18.9719995400
  H        17.2228728600       19.6544303600       20.4348303800
  H        19.1338910100       19.5813120800       17.0402495300
  O        18.0900088300       19.6505448400       17.1167113600
  O        22.2287506300       18.6179950500       19.9193765300
  O        19.2732694800       16.3949321200       20.7723557200
  O        18.7512260800       22.3157720300       20.5143069200
  O        18.5501581100       16.6014750900       17.5741025200
  O        21.4118278200       21.2275374100       19.0562012000
  O        16.2779860200       17.9855246600       18.8449428900
  O        20.8055627600       19.1833699200       17.3758041600
  O        19.9686518400       19.0166645700       21.6589898900
  O        18.0545946000       19.9052375600       19.9683287000
      30
 i =        1, time =        0.000, E =      -172.1827874262
  H        19.7324185500       18.1814682900       16.0235481200
  H        20.6918109400       16.8597977100       20.2754432000
  H        20.1625956400       17.8463583400       21.3729600000
  H        17.4994885300       16.9636247900       20.6103655100
  H        18.0848952300       16.2830392900       19.3197181900
  H        19.2665065600       23.9733173800       20.0787329500
  H        20.0739768100       22.9620795600       19.3493444700
  H        20.8536181500       15.6994716800       18.4717951500
  H        19.8421597500       16.6007501800       17.8172938700
  H        22.4604704200       22.5918432400       17.7998626900
  H        21.6396425800       21.5197445600       18.5668155200
  H        16.9176219500       18.0264663400       19.0062915100
  H        17.4331934200       18.6272747000       17.7550273200
  H        21.2679278800       18.9670999200       19.7252740900
  H        20.1616938400       19.8882835900       19.2542428400
  H        18.2702516200       19.1529634300       20.9115503500
  H        18.0806450600       18.5844120100       22.4209378900
  H        18.2494094600       21.1081043900       19.9326598100
  H        17.5503530900       19.8598269200       19.1192746700
  H        19.9569779400       18.5998102400       17.6373316800
  O        19.3775077000       18.0768386600       16.9835785200
  O        20.9899113500       17.5850006900       20.8689030600
  O        17.2960208500       16.5660318400       19.7431007600
  O        19.1305636600       23.1570141100       19.6009628700
  O        19.9492308000       16.0523455800       18.6584128500
  O        21.9010658000       22.4330704700       18.5454495400
  O        16.6749507600       18.7435728300       18.3725246500
  O        21.0344438700       19.5969118700       18.9197206600
  O        18.4296130300       18.4216466500       21.5266623600
  O        18.4590905100       20.1784910800       19.7168464500
      30
 i =        1, time =        0.000, E =      -172.1715247637
  H        18.4340817600       19.0741219700       15.9249452100
  H        21.6320193700       17.5959787800       19.1296416700
  H        21.5878326900       18.2487434200       20.6145235600
  H        18.0008305000       16.4970931400       20.2931444100
  H        19.4622488400       16.0987344600       20.0048826000
  H        19.1536825400       22.2097083600       20.2403731900
  H        19.1453640700       23.5684646300       19.5948324400
  H        19.7566481100       17.1757795300       17.3704464000
  H        20.7703891800       16.0211593300       17.3853588200
  H        19.4939906200       22.0893364800       17.5928411700
  H        19.5487582000       23.2614405300       16.6321665800
  H        16.4456399900       17.4380721100       18.4303087100
  H        17.9369882700       17.9193146900       18.3842857000
  H        20.5036013700       19.8411855400       19.0345056200
  H        19.0524283000       20.1918410700       19.2664187800
  H        19.4794627000       17.0694072000       21.9850654100
  H        20.7212192100       17.1443425900       22.9104762100
  H        18.4428458000       19.2176816300       21.2188634900
  H        17.3821965300       19.2648773000       20.2163568500
  H        19.1355769200       19.4295779000       17.2185409900
  O        18.8650560100       18.6035796400       16.6747493500
  O        21.7744299200       18.4398852100       19.6509997400
  O        18.7529568400       15.9637168600       20.7048506800
  O        19.7035766500       23.0403057800       20.1926855300
  O        20.2088210700       16.5618897400       17.9460310900