       6
 i =        1, time =        0.000, E =       -34.4145885211
  H        18.9443359800       21.4512645300       20.8432680200
  H        16.4461702300       18.4517049800       21.7499533300
  H        17.5119712500       18.6350135600       20.6922957900
  H        18.8366512500       20.8089661500       19.4989183500
  O        18.8713903600       20.5758800100       20.4223122200
  O        16.7291682900       18.0663372800       20.8536942500
       6
 i =        1, time =        0.000, E =       -34.4128989591
  H        19.2443452400       20.5226309700       20.3696535500
  H        15.9616066800       18.9966886400       21.8914312100
  H        16.1154538700       19.0942627500       20.4177284700
  H        18.3562347800       19.2588185700       20.6258319900
  O        19.0478647200       19.5654446500       20.0174826500
  O        16.6825757800       19.1696749700       21.2257485700
       6
 i =        1, time =        0.000, E =       -34.4159334134
  H        16.3378814100       20.5812423800       20.4907925400
  H        19.3408623000       19.5205834400       19.5505462300
  H        18.1971631500       18.9341488300       20.3500265500
  H        16.6988117800       20.4034012700       21.9801738400
  O        16.5113637400       19.8848652400       21.1864015600
  O        19.1625573200       18.7515287900       20.1156190100
       6
 i =        1, time =        0.000, E =       -34.4091952492
  H        15.7223764300       19.9235644300       21.1423144800
  H        19.8641492000       19.1634627000       20.4071240500
  H        20.0709549000       19.0892584700       18.8935973900
  H        16.9941584300       19.1874940100       21.2580028400
  O        16.1395437100       19.3781356700       21.7710990500
  O        19.4035231900       19.3890291000       19.5731656900
       6
 i =        1, time =        0.000, E =       -34.4079904678
  H        16.8541753600       20.8890458500       22.6316679700
  H        18.7095261500       18.3428643000       18.1331058900
  H        17.1205610900       18.2912734300       18.0439367400
  H        18.1737910900       20.2625653800       22.3936473300
  O        17.7416098200       20.9143968500       22.9533319200
  O        17.9144600000       17.8261821800       18.4223516800
       6
 i =        1, time =        0.000, E =       -34.4171619352
  H        18.0925732000       17.9096097400       21.3839303800
  H        17.7501571600       21.0226312400       19.4455918800
  H        17.7355632700       19.7290851300       20.3143520400
  H        16.6496599400       18.2284771900       21.6046331200
  O        17.5291215400       18.6487638300       21.7555189400
  O        18.1666470900       20.1482633200       19.5227511400
       6
 i =        1, time =        0.000, E =       -34.4147813294
  H        18.0359467600       21.1026014500       21.6064221700
  H        18.5442525300       18.2834465800       20.0897160900
  H        16.9865990700       18.0827746500       19.7456308300
  H        17.7490643600       19.7561489200       20.8162294800
  O        17.8677401900       20.1633635000       21.7403247200
  O        17.7594858700       18.6125467300       19.5688493600
       6
 i =        1, time =        0.000, E =       -34.4038597110
  H        17.3831702800       20.1034953700       22.1806767000
  H        19.8272754400       18.4444071400       19.2695203600
  H        18.6963843000       17.3326271800       18.8673844100
  H        16.5603169300       20.3702679200       21.0849748300
  O        16.6485834400       20.6723186200       22.0415274000
  O        18.9061071900       18.1649684000       19.3215429100
       6
 i =        1, time =        0.000, E =       -34.4138312325
  H        19.0558851600       20.4835470800       21.6247998600
  H        16.7778600300       17.7204143000       20.1061808200
  H        17.8643763100       17.5642893600       19.1304149800
  H        17.8522946700       20.0839048500       20.7978339600
  O        18.0790714600       20.6920739300       21.5674283900
  O        17.5333768200       18.1703291100       19.7794705100
       6
 i =        1, time =        0.000, E =       -34.4119329246
  H        16.6582930500       21.7567358200       20.5710358700
  H        18.2942628000       17.0000284500       19.7197316000
  H        18.0509730300       18.5110152800       20.1810935900
  H        16.8220236600       20.6453920100       21.5750424300
  O        17.2934757900       21.0713325800       20.8690001900
  O        18.4276456700       17.6612183400       20.4534737000
       6
 i =        1, time =        0.000, E =       -34.4073741764
  H        18.5000948800       20.0981777300       21.0578908300
  H        17.3775783300       18.3495564900       19.4217823000
  H        17.6588628000       17.0269059300       20.2534878400
  H        18.2699439000       21.6956543700       20.8682823900
  O        17.8593405000       20.8124937700       21.0290057800
  O        17.7369747500       17.9668613300       20.3215338700
       6
 i =        1, time =        0.000, E =       -34.4098674300
  H        18.1383496600       20.8868819300       20.2774539600
  H        17.4182918400       16.3137495200       21.9947412900
  H        18.3208165500       17.4844106900       21.5595804000
  H        17.8975017700       21.2376260900       18.8593467300
  O        18.2280798300       21.6496869800       19.6753664100
  O        17.3702213100       17.2082734900       21.6065191500
       6
 i =        1, time =        0.000, E =       -34.4086560053
  H        17.3182176000       19.1376878900       20.7857055900
  H        19.8684272200       18.8844709500       19.7810171800
  H        19.4828341800       20.3866033200       19.9909225600
  H        15.7852420300       19.7627120100       20.4338405300
  O        16.3170680200       19.2791088900       21.1457462700
  O        19.2384054800       19.4371679400       20.2432230900
       6
 i =        1, time =        0.000, E =       -34.4113312132
  H        18.6641532600       20.1211617500       22.5596521400
  H        17.8155921800       18.9921368500       18.3011484900
  H        17.6290937600       18.8641467000       19.8645969700
  H        17.6480529200       18.8908624500       22.7861226900
  O        18.1858826100       19.3428064300       22.1418882800
  O        17.4135568600       19.4555750200       19.0883090000
       6
 i =        1, time =        0.000, E =       -34.4113186244
  H        16.0797105500       19.7149773300       20.8968347800
  H        19.8352924200       19.6811797800       19.6532862300
  H        18.5837812400       19.1414734900       20.3602041600
  H        17.3610055300       20.0930071800       21.5924114600
  O        16.5211295600       19.5996458500       21.7759796200
  O        19.0718269600       19.0877018700       19.5177749900
       6
 i =        1, time =        0.000, E =       -34.4122077126
  H        16.2358852300       20.4991130500       20.7546287200
  H        18.7466304000       17.9047469000       20.1619697100
  H        17.9402263800       19.0512401900       20.8509733500
  H        17.6965505900       20.8925406800       20.5281129200
  O        17.0026605300       20.2908433100       20.2602226600
  O        18.6684521900       18.4143343300       21.0465770500
       6
 i =        1, time =        0.000, E =       -34.4120971878
  H        16.8107987900       19.1639090600       21.8189790500
  H        19.5873766200       18.2275739600       20.5135034200
  H        18.9373636500       18.9033622100       19.1714427000
  H        17.3264918300       19.8417210400       20.5950032400
  O        16.5542703800       19.8851224300       21.1953887000
  O        18.9881418000       18.9593616200       20.1238074200
       6
 i =        1, time =        0.000, E =       -34.4147819124
  H        19.2998521100       20.0292441400       21.9624266100
  H        15.8404649500       18.6908106800       19.6717436800
  H        17.0026117300       17.7229455600       19.7696860000
  H        18.3750608400       19.8771660700       20.7471145000
  O        19.1142017800       20.4247967200       21.0348793400
  O        16.5632934300       18.4081197900       20.2810379100
       6
 i =        1, time =        0.000, E =       -34.4142683942
  H        17.0477288900       20.1252538500       23.0375903000
  H        18.6531681400       18.0369891000       19.2408316800
  H        18.2398269700       19.2648915200       19.9057775700
  H        16.2013438400       20.0856666100       21.8050324000
  O        17.0699001900       19.7635526600       22.1410633300
  O        18.6312795700       18.9942231800       19.0590362400
       6
 i =        1, time =        0.000, E =       -34.4153330421
  H        16.7468576300       18.6249959100       20.3546796200
  H        18.3603793800       19.3741251300       20.8001346600
  H        19.2864365000       20.5063385400       20.1094057200
  H        16.1760013900       19.9912348000       20.8007572800
  O        16.5731368000       19.1539878400       21.1767091000
  O        19.1011020300       19.5417988400       20.1446260700
       6
 i =        1, time =        0.000, E =       -34.4092303284
  H        17.0147948600       17.6047094700       21.5455734400
  H        17.7607630500       20.7484709100       20.0433687200
  H        18.6217879100       19.5607536700       20.6063726300
  H        16.3767864800       17.9410031200       20.1280235300
  O        17.1028066100       18.2565461400       20.7775237000
  O        18.6215545400       20.6056816400       20.5275337100
       6
 i =        1, time =        0.000, E =       -34.4103129921
  H        16.4745692800       20.3799190400       22.3026516000
  H        19.4223800400       17.6776136600       20.5289485600
  H        19.3101469800       18.2191497700       19.0403088700
  H        17.2994286700       19.9534109500       20.9939231700
  O        16.5521791700       20.4770117900       21.3524508900
  O        19.0000304900       18.3615796700       19.9184272700
       6
 i =        1, time =        0.000, E =       -34.4132641207
  H        18.2933338300       19.8318646100       20.7340363500
  H        16.7649907300       18.0202472700       19.0240686400
  H        16.5528242100       18.5535833900       20.5541050500
  H        19.2389138300       20.8227390500       21.3993143800
  O        18.4104564100       20.3293880700       21.5728402900
  O        17.2461169100       18.4463039800       19.7707638100
       6
 i =        1, time =        0.000, E =       -34.4152186610
  H        17.2914910700       18.0020161300       21.5725188800
  H        17.7665458200       19.7567244800       19.8522628500
  H        19.1679955600       20.0694151500       20.1755388500
  H        17.0925379300       19.0464406000       22.7512255200
  O        16.9944719500       18.9061354900       21.8009294800
  O        18.6325835200       19.8918497600       19.3763428500
       6
 i =        1, time =        0.000, E =       -34.4123438069
  H        15.7430772400       20.4253208200       21.3424728600
  H        19.5574404400       18.1064351900       21.0589042700
  H        18.2000000300       18.7139271400       20.5095811600
  H        16.4873879700       20.7848657100       20.1807039200
  O        16.6877168500       20.4301380700       21.0376542000
  O        19.0231757400       18.2950176000       20.2189957800
       6
 i =        1, time =        0.000, E =       -34.4133795934
  H        17.6006324900       19.0283107100       22.5258570600
  H        18.3379654200       19.3786021900       18.8760388200
  H        19.2567336200       20.2447182400       19.8840960900
  H        17.3008425800       19.0906014500       21.0129967700
  O        17.1691521900       18.5235302300       21.8261202700
  O        18.3837096100       20.2197905200       19.4804712700
       6
 i =        1, time =        0.000, E =       -34.4128514237
  H        16.6264129700       19.3963587000       22.4145311200
  H        18.3239344300       19.8448727600       20.2862709500
  H        19.0786330600       18.7924331900       19.4015851300
  H        16.5972860200       18.1633290100       21.3887204200
  O        16.4990545400       19.1557643400       21.4038140200
  O        19.1716188000       19.6849125500       19.8276693200
       6
 i =        1, time =        0.000, E =       -34.4140901993
  H        16.9853297500       19.2766932100       20.0630591000
  H        18.0167306000       19.6430448400       22.1916017600
  H        19.3746069400       18.9970239800       21.9006363200
  H        18.1056822300       19.8488657700       19.4290646500
  O        17.1367665200       19.9440624700       19.3773741100
  O        18.4169662800       18.7977842800       21.8482338700
       6
 i =        1, time =        0.000, E =       -34.4101877965
  H        16.6662576900       19.5830129300       19.7617951900
  H        18.7873974900       18.7486353900       20.6140431400
  H        18.4440116200       18.7874493100       22.0887125400
  H        16.9994260000       20.9553332700       18.9933196600
  O        16.8785757600       20.5496842300       19.8960693500
  O        18.7750344500       18.1727067100       21.4635159500
       6
 i =        1, time =        0.000, E =       -34.4084801276
  H        15.7217436200       21.5715766700       20.6513928700
  H        18.9511054500       15.9237009300       20.6624138200
  H        19.7784999200       17.2620469100       20.6652925200
  H        16.2786876000       23.0108387900       20.9242063300
  O        16.4426696900       22.0609765600       21.1510670300
  O        19.2214657300       16.6807104300       20.1174501700
       6
 i =        1, time =        0.000, E =       -34.4097715744
  H        17.7570753900       20.6578252400       19.9325373800
  H        18.5190861200       16.6724543100       21.3406868000
  H        18.0476307300       17.9725600500       20.7971540500
  H        17.1147838700       22.0050424400       19.5447848700
  O        16.8969582600       21.1567101100       19.9494501500
  O        18.7225363900       17.6139764300       21.4002250800
       6
 i =        1, time =        0.000, E =       -34.4120742810
  H        17.5823297300       20.1144869700       22.7464411900
  H        17.1131649800       18.9453950500       18.5062680800
  H        17.5962160200       19.3838362500       20.0001878200
  H        19.0365215400       20.2636514200       22.0645861000
  O        18.0406491900       20.0377286500       21.9040598600
  O        17.5857975300       18.6447846500       19.3383625100
       6
 i =        1, time =        0.000, E =       -34.4064768975
  H        16.7533866600       19.9456073900       20.3785518800
  H        19.2236561400       17.0064671800       20.8427789000
  H        19.7112441900       18.0457578000       19.9827646200
  H        15.6164347200       20.8648651500       20.1920797500
  O        16.4642716900       20.9026934900       20.6038948000
  O        19.1636562900       17.9590453700       20.7595775500
       6
 i =        1, time =        0.000, E =       -34.4061344833
  H        17.2247321800       20.2628345100       19.2388878300
  H        18.9217869600       17.3368844800       21.0080855400
  H        19.6394710900       18.1639186400       22.2396227500
  H        16.9450606800       20.6693208600       20.6873537800
  O        16.4728485800       20.5218964700       19.8255214700
  O        19.0652150600       18.3039137000       21.4259440600
       6
 i =        1, time =        0.000, E =       -34.4112134389
  H        15.5232331200       20.5479575800       19.9417759000
  H        20.0669203300       18.9722755500       21.4100611900
  H        18.7226139100       18.9713699800       20.5946558500
  H        15.4864093400       19.3903839700       20.8212410800
  O        16.1082079700       20.1541521100       20.6559975900
  O        19.6145752700       18.5803635500       20.6210611500
       6
 i =        1, time =        0.000, E =       -34.4115681040
  H        17.4320590100       19.6296672200       21.3847720600
  H        18.3244978700       19.1512969600       18.5754014100
  H        18.8920626300       17.8064904300       18.9985643100
  H        17.5765703600       20.0506020900       22.7890253100
  O        16.9536890700       20.1836919800       21.9975393900
  O        18.6162458100       18.6291962000       19.3437815400
       6
 i =        1, time =        0.000, E =       -34.4111877128
  H        17.3570704300       20.0864009800       20.8695498900
  H        19.6633077300       18.2658577700       20.4737731700
  H        18.7647308300       17.4364524200       21.4660100800
  H        16.2361608100       19.6683364200       19.9574240200
  O        16.6968074900       20.5448072700       20.2520288600
  O        18.8859751500       18.3424891400       21.0250914200
       6
 i =        1, time =        0.000, E =       -34.4009789510
  H        16.9819820900       21.4462960100       20.4495957300
  H        20.2734997100       17.8714961100       21.4448930500
  H        18.8917783800       18.6680293500       21.6033149900
  H        15.9768339200       21.0129367800       19.1593330300
  O        16.2448984600       20.8146867200       20.1324585500
  O        19.3314058500       17.8494679600       21.1515682500
       6
 i =        1, time =        0.000, E =       -34.4170074289
  H        15.8048284200       20.5263333700       20.0685906000
  H        18.2561551300       19.0605279800       21.0993026500
  H        18.8455504200       17.9937971100       20.2096776100
  H        17.1256941300       21.2167273800       20.2795688200
  O        16.7518380000       20.3199311200       20.2215793700
  O        18.9562621100       18.3569108300       21.1254511800
       6
 i =        1, time =        0.000, E =       -34.4143169609
  H        18.2603196100       19.1897942500       20.2973394400
  H        16.8088897900       19.8449189100       21.9773669200
  H        15.8553299900       20.5817883000       21.0771246300
  H        19.1181612800       18.3075692900       19.3059932200
  O        19.1415977900       18.7749939700       20.2275690800
  O        16.5658425100       19.9568702600       21.0564144100
       6
 i =        1, time =        0.000, E =       -34.4171505159
  H        17.4832770200       19.7908084000       20.6688371700
  H        18.8765786500       18.0469461800       21.4551625400
  H        18.8264077200       17.6162671200       19.9137569000
  H        17.1524102800       21.1491372200       20.1971970800
  O        16.7739328100       20.4316165500       20.7649051100
  O        18.7888521300       18.3834703300       20.5457208800
       6
 i =        1, time =        0.000, E =       -34.4160677715
  H        18.7045216000       21.1205321800       19.9459699100
  H        17.2931179300       18.8493397900       20.4428066700
  H        17.8610565800       17.7968755800       21.3972353900
  H        17.8874455800       21.5082716300       21.2199957600
  O        18.2695051800       20.7725346700       20.7073717800
  O        17.3306116000       17.8742144900       20.5546747700
       6
 i =        1, time =        0.000, E =       -34.4171752066
  H        17.8661112200       17.6806757700       20.9221302700
  H        17.0147521000       21.2523367400       20.1315708500
  H        17.6202518200       19.8647952200       20.4132563800
  H        18.8835595200       17.8182114200       22.0318466900
  O        18.2000944500       18.3275127100       21.5424333000
  O        17.4227961800       20.4867639000       19.6885651300
       6
 i =        1, time =        0.000, E =       -34.4146873767
  H        17.3198368100       19.4895719200       20.9963962400
  H        18.2499199000       18.8261241700       18.6163577600
  H        19.4035614200       19.6171142000       19.3090652400
  H        17.4384548600       20.3474636700       22.4012080900
  O        16.9175612400       19.6985741700       21.8836654700
  O        18.6406181700       19.0108478500       19.4844154600
       6
 i =        1, time =        0.000, E =       -34.4153542472
  H        17.2982068500       19.4528741900       20.8217777400
  H        19.8564961900       19.5418257100       19.6605464000
  H        19.1410543800       18.2085069400       20.0263448500
  H        16.3367343100       19.6540170700       21.9678875000
  O        16.3417184000       19.6847464700       20.9708439500
  O        19.2025548400       19.1143332900       20.3245601300
       6
 i =        1, time =        0.000, E =       -34.4077025148
  H        18.4857846400       21.1873460700       23.3175708200
  H        18.4255141400       17.2388669500       17.3625245200
  H        18.6610735800       18.4276273600       18.2533302200
  H        16.9743649800       21.4101392500       23.4893761300
  O        17.6255378500       20.7329963800       23.5270034700
  O        17.9241382400       17.9774522400       17.7717873600
       6
 i =        1, time =        0.000, E =       -34.4083713925
  H        17.3348486600       21.0935261400       20.4531899700
  H        18.3573291600       18.1742418000       21.1386989600
  H        19.9538714300       18.1043789000       21.1239361700
  H        15.7269868300       21.1975229200       20.5796094000
  O        16.5131809600       20.5964546800       20.6819565700
  O        19.1104429500       18.0947342600       20.5618549500
       6
 i =        1, time =        0.000, E =       -34.4084170598
  H        17.9643893600       21.2604663600       22.1413885600
  H        18.2704870800       15.7426629500       19.2496032500
  H        18.7152445900       17.2569782200       19.3682676300
  H        18.2796322900       22.7357615500       22.3571635600
  O        17.5653241300       22.1279349800       22.0257420300
  O        17.9413192700       16.6624096000       19.2293479400
       6
 i =        1, time =        0.000, E =       -34.4137271834
  H        17.1548153400       19.5416539400       20.9481186500
  H        19.3857766200       19.3977893600       20.8251770900
  H        20.0063676300       19.5308952500       19.3657885400
  H        15.7877245800       18.9600716800       20.8794102200
  O        16.3491238100       19.5125872000       21.4547667000
  O        19.2139124800       19.2503795800       19.8694970800
       6
 i =        1, time =        0.000, E =       -34.4121116067
  H        18.8332038100       21.2999450000       20.9759638700
  H        17.8316689000       17.6164716600       21.2581385000
  H        16.9921618100       17.2593116400       19.9975607000
  H        18.0718640800       20.0761768900       20.5463735400
  O        17.8596110600       20.9698673000       20.9746383300
  O        17.7415921300       17.8673499400       20.3017713100
       6
 i =        1, time =        0.000, E =       -34.4153195526
  H        18.9507312600       21.1234246400       21.0060567300
  H        17.6438628200       17.5248307100       21.6297340200
  H        17.6596697800       18.8569619500       20.8237129700
  H        18.8388706900       20.9687109900       19.5400661300
  O        18.3106173800       20.7356380600       20.3696383000
  O        17.2046335600       17.9615829800       20.8928138800
       6
 i =        1, time =        0.000, E =       -34.4143656347
  H        16.7818074900       20.6675394500       21.5787182900
  H        19.4300232600       19.6332656400       19.8974015900
  H        19.1090614100       18.2549003500       20.1053691100
  H        17.4586312900       19.5360309000       20.9271451800
  O        16.7802613300       19.7072143800       21.6566809100
  O        18.7547483600       19.0140862600       19.6367021400
       6
 i =        1, time =        0.000, E =       -34.4149924899
  H        18.9684232300       18.4846110100       21.5921395900
  H        16.7790411500       20.8689993800       19.5896793800
  H        16.7998208300       21.3697934600       21.0053834900
  H        18.0436661300       18.7617057100       20.4787995400
  O        18.5970864000       18.0152261600       20.7859324900
  O        17.0758119200       20.6182864700       20.4975357800
       6
 i =        1, time =        0.000, E =       -34.4096377857
  H        15.7370806000       19.3458605800       20.7443848500
  H        19.2800992700       20.3356843600       19.4507267400
  H        20.4253045300       19.4315688200       19.7171580800
  H        17.1303275600       19.4562995900       21.4543117900
  O        16.1442830900       19.2836327200       21.6385260500
  O        19.4037502300       19.4075723700       19.7268108200
       6
 i =        1, time =        0.000, E =       -34.4122035887
  H        15.9107397200       20.3509544500       20.3649811800
  H        19.9189142400       19.8909975100       21.3928362800
  H        19.6155538300       18.4541227800       21.0202029700
  H        16.8087230600       19.1157551500       20.1214481500
  O        16.0068310100       19.3633328800       20.6106413900
  O        19.5612930700       19.3756029600       20.6581175500
       6
 i =        1, time =        0.000, E =       -34.4082252341
  H        18.3498929800       20.9714092700       22.3956274000
  H        16.5891778100       18.1208799100       19.3962829400
  H        17.3110887400       19.2743522200       19.8616643500
  H        19.2580124600       19.7831260900       22.2999480300
  O        18.2728361200       20.0596948200       22.0528462700
  O        17.3422736900       18.6579496200       19.1495031100
       6
 i =        1, time =        0.000, E =       -34.4090364598
  H        16.7455353700       19.3775154500       19.9123533900
  H        20.1390689100       18.6284003100       21.9085468400
  H        20.0343244400       18.6917754200       20.3921884000
  H        15.8417134000       19.5994350600       20.9780143000
  O        16.0147782500       19.9554967500       20.0635421600
  O        19.5214210200       18.8788713900       21.1868426600
       6
 i =        1, time =        0.000, E =       -34.4091083819
  H        15.4925222000       18.0154284700       21.8685908200
  H        19.1590465900       19.9989115000       20.1764328500
  H        19.9462501100       19.2337901000       19.0668176100
  H        14.9241508100       19.4522039400       21.6329657400
  O        15.6783156400       18.8755274800       21.5022622700
  O        20.0619327300       19.9334369700       19.7762409500
       6
 i =        1, time =        0.000, E =       -34.4156277306
  H        15.8938217100       18.8472147400       20.9220763200
  H        18.8991987800       19.8417611200       18.9773800200
  H        19.8963772200       19.6604169300       20.2501148700
  H        17.4340896400       19.1669666700       20.8611500700
  O        16.6228322700       19.1870524100       21.4587571300
  O        18.9535102600       19.5704992200       19.9290003400
       6
 i =        1, time =        0.000, E =       -34.4179602930
  H        17.6583217000       19.3139101800       21.1611392000
  H        18.6219529100       18.4136004800       18.8762179400
  H        18.9917413100       19.9044028200       19.1275799600
  H        16.7309997300       20.2994022500       21.9646944700
  O        17.3143210700       19.5047924800       22.0685819900
  O        18.2696116500       19.2266152800       19.3116836500
       6
 i =        1, time =        0.000, E =       -34.4111671537
  H        16.2849943300       19.7156729400       21.2683726900
  H        19.3425958100       19.7458064300       21.6700229100
  H        18.6213409500       19.3587894200       20.3088801400
  H        15.4275277000       18.8057662400       20.2440898700
  O        16.3105881500       18.9729908300       20.5590170200
  O        19.4199268100       19.7776508200       20.6724500700
       6
 i =        1, time =        0.000, E =       -34.4114274142
  H        16.6427761200       21.4170941900       20.9170343200
  H        17.5978140200       17.3106431400       20.2619378000
  H        17.9235925400       18.8746527200       20.1986619600
  H        17.9841941000       20.9895866800       20.2631383000
  O        17.3585427200       20.7165615600       21.0027477300
  O        18.3422395400       17.9732219500       20.3453140200
       6
 i =        1, time =        0.000, E =       -34.4122454931
  H        17.9396184900       20.1776639500       20.6971647500
  H        16.8041588000       17.9350151700       20.1628545000
  H        18.1705233700       17.3199108900       20.3999593200
  H        18.5238038300       21.4125267800       21.2821127800
  O        17.8176816600       20.7867896300       21.4344951400
  O        17.8018426900       18.0130529400       19.8567799700
       6
 i =        1, time =        0.000, E =       -34.4095500800
  H        17.4615184800       19.8243503300       21.0143642200
  H        19.9673466300       18.7588578100       19.9359409200
  H        19.0393268300       18.1676761600       20.8235845700
  H        16.2393438100       19.3767039200       20.4114480300
  O        16.5034151700       19.9056102100       21.1187661400
  O        19.0361300100       18.9394394800       20.1949858700
       6
 i =        1, time =        0.000, E =       -34.4127515925
  H        18.0920910900       19.9750091200       21.0031467900
  H        17.3469565200       17.9381244500       20.1381834900
  H        18.1484713200       17.8770144000       18.9049520200
  H        18.7007407700       19.8495409800       22.4484222300
  O        18.0341978200       20.3449791900       21.9448660800
  O        17.5317634000       18.5308100700       19.3493945800
       6
 i =        1, time =        0.000, E =       -34.4122083875