      51
 i =        1, time =        0.000, E =      -292.7274910347
  H        17.7722266600       19.2337263100       20.0731496100
  H        19.8802195400       22.2859025600       18.4344737900
  H        19.5885527600       22.2874878700       17.0002606400
  H        20.4318643800       16.0109271400       23.2541785300
  H        19.8864000800       17.5092633600       22.9967490600
  H        22.1866548300       23.3060959400       22.8485556400
  H        20.4796190100       23.1863942400       22.6201187200
  H        18.2265743400       18.6121821000       22.3417632700
  H        18.6800816100       19.1061416500       23.6390275800
  H        23.7194669900       20.7505625600       19.5834602700
  H        24.1309182600       19.6202878600       20.5246682300
  H        20.4063393600       19.8621184100       24.6082863900
  H        19.5237519700       20.8264734500       25.5858686000
  H        20.3361436500       16.9033479500       18.6157570500
  H        19.0453900100       16.2720889600       18.1542496900
  H        23.2034166000       17.4342725100       19.9178266600
  H        24.5871649900       17.6094261400       20.6505637700
  H        21.5438134100       18.0390220900       24.2105002000
  H        21.8644060200       19.3330359600       23.5124540300
  H        19.1158841900       21.3876136000       23.2947033900
  H        18.7077158100       21.7148219200       21.8548859900
  H        22.5735470100       19.9730875000       17.4260772700
  H        21.7345112200       21.2145890000       17.9563477300
  H        20.8068581200       23.6241477400       20.6822668000
  H        21.6214015400       23.1942432000       19.5337487000
  H        21.1520754800       17.1195097800       20.8658408500
  H        21.3320794400       18.6196473800       20.4947773300
  H        23.4847044000       21.6547859800       23.6258979600
  H        24.0452844600       22.0055415200       22.3075493300
  H        20.8889411700       20.5145473100       21.6190970100
  H        22.5258401700       20.4009975600       21.3557242100
  H        19.0065726400       18.6840076200       18.1904863600
  H        18.8334548700       20.2633775800       18.2220195900
  H        16.7607375500       18.5465654700       20.9876502800
  O        17.4590824100       19.2304174800       21.0448114500
  O        19.8389182600       21.6541964900       17.6805506000
  O        20.7462512000       16.8878916200       22.9206399000
  O        21.3506894500       23.4189006300       22.2576413400
  O        18.5790219900       18.1947614200       23.1698300300
  O        23.9058924300       20.5697485700       20.5436186100
  O        19.5254048500       20.3509890700       24.6816499300
  O        19.7136817700       16.9073237500       17.8861564900
  O        23.9986473600       17.9881729100       19.9680937000
  O        21.6801589000       18.9745835600       24.4445220000
  O        19.3523302100       21.9796064000       22.5394312300
  O        22.6644691900       20.8449962600       17.9801215800
  O        20.7299744900       23.5314708100       19.6459521700
  O        21.2385419400       17.7151694100       20.0978207300
  O        23.6794695000       22.4167691900       23.0911657100
  O        21.6613835300       19.8803255700       21.7335043200
  O        18.3689232200       19.3892504400       18.5473636600
      51
 i =        1, time =        0.000, E =      -292.7134634471
  H        18.0420985000       18.3985149300       19.1737440200
  H        19.3753593100       21.8708849100       20.8209609700
  H        18.1424243900       22.5935077300       20.2266346400
  H        21.4915446700       17.7839624600       22.1420454500
  H        20.2337634400       17.1581041100       21.7172103700
  H        21.5131494600       23.5619834100       20.8425049700
  H        21.9684480300       24.1290672100       22.0635907900
  H        18.2121597900       18.2180754900       21.6641879600
  H        18.8102264600       19.5357763800       22.2799197700
  H        22.5833153500       20.6189889200       19.2930499500
  H        23.0737975900       19.1528465200       19.4772981100
  H        22.2863982300       20.4013731100       25.2486631500
  H        22.1846834300       21.6171368700       24.4799714300
  H        20.7851504800       18.7773152600       17.1404267400
  H        20.6836127200       19.7523122700       15.8119226100
  H        22.2265051200       17.0830276000       20.1433836700
  H        23.2090381700       16.4320420300       19.1102701600
  H        24.2177569200       18.6918652700       24.3151015700
  H        23.1337562200       19.2972012600       23.3160013000
  H        20.2172384500       20.4793985200       25.1380666100
  H        19.0127934200       19.4930593800       24.8221619200
  H        20.3269070600       22.2884753200       18.9888981300
  H        21.1399789200       21.2047441700       18.1188955100
  H        20.5594839600       22.4391636500       22.6780934000
  H        19.5052985700       21.5709107600       23.4474731400
  H        20.8656365600       16.6869121100       18.3218679800
  H        19.4503581200       17.3276756900       18.2922989600
  H        24.0310768700       22.6882118900       23.1980642000
  H        23.5377862900       21.3922639300       22.6021345400
  H        21.5844184500       20.4371064800       22.3780218700
  H        22.5618110200       19.5874301800       21.3992229100
  H        18.8969591900       19.9455484500       17.7295480500
  H        18.4669847000       20.7009699900       19.0252755100
  H        17.2648754600       17.1691793000       19.6506585000
  O        18.1623311500       17.5886857500       19.6672297000
  O        18.9816613700       22.1748629500       19.9197112000
  O        21.1969620700       16.9385287200       21.7492506400
  O        21.1717938600       24.1551533300       21.5716599300
  O        18.7834914900       18.5321973000       22.4008275300
  O        23.1392593100       20.0255415500       19.8459622100
  O        21.6455932300       21.0917308500       25.1339032800
  O        20.7606441800       19.7293245700       16.7973251200
  O        22.9147402800       17.2863252300       19.5090022500
  O        23.6035442900       19.4447204500       24.2311389000
  O        19.1845657900       20.4336008500       24.9862773800
  O        21.2294019200       21.9074699400       18.8025795300
  O        19.9509878800       21.6715137500       22.5700414300
  O        20.2682100600       17.0613855100       17.6502321500
  O        23.2251995700       22.2818644800       22.8606782500
  O        22.0159566200       19.5850969900       22.2557862100
  O        18.1632241600       19.9397018300       18.4029545100
      51
 i =        1, time =        0.000, E =      -292.7237568263
  H        17.6737422600       19.5421068900       19.6703336600
  H        19.9259961400       22.1971765900       19.8491944500
  H        19.2375258000       23.2604500500       18.8783896600
  H        20.5704395200       15.7920229700       22.2800237600
  H        20.2615283400       17.2219796600       22.1187272100
  H        22.0053626600       24.1035454600       23.1309627800
  H        20.4610821900       24.8012862800       23.0204967800
  H        18.3719505800       18.3987862700       22.1402623300
  H        19.1269226500       18.7187671700       23.4308016500
  H        23.0603639000       20.3835373400       19.6234024000
  H        23.3529632700       18.9625291100       20.2523675200
  H        22.3232873000       19.6663515500       24.7250842100
  H        22.1899103900       21.0829127400       24.3458697700
  H        19.0167002000       17.4458592400       15.6865981500
  H        17.5649776500       17.8928973900       15.5623892500
  H        22.4844634900       16.9310066500       20.9661750000
  H        22.1805333700       17.1175316500       19.4366266600
  H        22.5523960400       17.3677603300       23.3314564700
  H        23.2036888900       18.6695515600       22.7420221100
  H        20.2118244300       20.3055757900       24.2330445700
  H        18.9295007400       20.5513298800       25.0026199300
  H        21.6790393100       20.3706403100       17.6497218500
  H        21.3592186200       21.6573405500       18.2777266800
  H        20.5867165900       22.9078359700       22.0658357000
  H        19.6252331100       21.6817034200       22.0300533900
  H        19.0720785600       17.0164683300       19.2328327500
  H        19.7324710700       18.1595155300       18.5178814400
  H        24.0092159900       23.7973014200       24.1917961300
  H        23.6652244600       22.8035810700       22.9989930400
  H        21.9675675600       21.5143743100       22.0974267500
  H        23.3180648700       20.8490307200       21.6633035700
  H        18.5365683800       19.5337650800       17.2781978800
  H        19.1023688400       20.7566874000       18.1998479300
  H        16.4444959100       18.8387989200       20.2005419700
  O        17.4093269600       18.9605917800       20.3953329400
  O        19.7244271300       22.3571645400       18.8933454700
  O        20.9763054600       16.5699329100       21.9288812200
  O        21.0134172600       24.0208184200       23.0549591800
  O        19.0669789700       18.0503025200       22.7264799800
  O        23.5799866100       19.8868922300       20.4144441000
  O        21.7392218400       20.4158654300       24.9631415200
  O        18.4474980400       18.1837526300       15.9465768600
  O        22.9088406100       17.2839091200       20.1409557100
  O        23.1127178800       18.1631611700       23.5912485900
  O        19.2871836100       20.3962775700       24.0783733700
  O        22.1358383300       21.0612253300       18.1418550900
  O        20.3421768100       22.0466609000       21.4817285700
  O        19.9016948200       17.2212616600       18.7281574100
  O        23.6775297100       23.7963824300       23.2395643800
  O        22.8751405800       21.4205962400       22.4156606300
  O        18.5641618700       19.8985587700       18.2281294700
      51
 i =        1, time =        0.000, E =      -292.6922584364
  H        18.3819156500       19.5015753300       20.5938176800
  H        19.5967148800       22.3991197400       19.8257724800
  H        18.4895591900       22.5353063600       18.7719178000
  H        21.1303779800       18.6241806100       21.2954727700
  H        20.1178956600       17.2428685300       21.2293576200
  H        23.3969801000       23.2151169000       22.4741244500
  H        23.2108847600       24.6424402900       21.6132196700
  H        18.2208263100       17.9735168700       21.9339962400
  H        18.0902612500       16.9905680400       23.1498055600
  H        23.5482625400       20.6635926200       19.1675441900
  H        23.9368849200       19.4129803900       19.9660180100
  H        21.4308192200       20.9793862800       25.3834379000
  H        21.8143910400       22.5812742900       25.2895914800
  H        18.4252119000       16.9685495400       16.7393944700
  H        17.6731309400       16.6057283400       18.1547777500
  H        22.6627507800       17.5659297800       20.1903097900
  H        22.9335736900       17.2077858100       18.6882697900
  H        20.3806202800       18.7695258400       24.8496444200
  H        21.2587503800       19.3453803000       23.6444192000
  H        20.0627600200       21.6756046600       24.4752455500
  H        18.5639292400       21.3355140000       24.1804023800
  H        21.4214835400       21.5960057600       18.3750821900
  H        22.5408628900       21.7795889900       17.4545029500
  H        21.3071559500       23.2176401600       21.3680914600
  H        20.0319237000       22.8132950600       22.2180762700
  H        20.5477375100       16.8928392900       18.6978860200
  H        21.2113432200       16.6526950500       17.3380204800
  H        24.2651088800       21.6633112700       23.9287628300
  H        23.0556705600       21.3471853100       22.9948286200
  H        21.4000118200       20.9825030600       21.4723558900
  H        22.7485709700       20.1569941900       21.1979503100
  H        18.3988116300       18.9926713000       18.3652975600
  H        19.2053898500       20.3305518900       18.7240419200
  H        18.4286223100       20.4741579700       21.8171051700
  O        18.0677455200       19.5653688400       21.6041078900
  O        19.3808195900       22.1072165500       18.8532032500
  O        20.9309561700       17.7508674400       20.8358940700
  O        22.7309628700       23.8196726100       21.9662899700
  O        18.3445744000       16.9784683800       22.2562793000
  O        24.0278589900       20.3499598800       20.0272746300
  O        21.1872466100       21.8934380200       25.6646722200
  O        17.7520033100       17.2827274900       17.4510644500
  O        23.3806970400       17.4716140700       19.5046064300
  O        21.2446822200       19.2121337600       24.6274455500
  O        19.4270940100       21.3445939600       23.6942366100
  O        22.2189910400       21.1121141000       18.0468222300
  O        20.3787629100       22.7938404600       21.2716683400
  O        20.8839047900       16.1543312400       18.1038133900
  O        23.3961123800       22.0403972100       23.6299122800
  O        22.0583536700       20.3241802600       21.8592745500
  O        19.0942613700       19.3537895200       18.9258018000
      51
 i =        1, time =        0.000, E =      -292.7129151761
  H        18.0521680700       20.9904934800       20.3504199400
  H        19.7941083600       22.3374736100       19.8652090800
  H        18.9393579000       21.8146647700       18.7745610100
  H        22.1760566800       16.5377304600       22.8247209100
  H        20.7971278500       16.5502428500       22.0545892900
  H        22.7363178600       23.4453027300       23.2972393300
  H        21.2531402600       23.7755843800       23.7958405100
  H        18.4073114900       18.5884709000       21.7276356700
  H        18.6517382900       17.6742523800       22.9433720900
  H        24.2970893100       19.3911966500       18.4463046200
  H        23.3816862600       18.4152971700       19.3742402100
  H        21.5206209700       19.8660367900       25.1257297200
  H        21.7420906600       20.9300720000       26.0212818500
  H        18.3387844600       19.2355646400       17.2016506300
  H        18.0185061500       17.9733131100       16.3481942000
  H        22.1185479000       16.9003174400       19.8468040100
  H        21.2011804000       17.4938370400       18.7915830800
  H        20.7000666500       18.4966824800       23.2194582300
  H        22.1397397200       19.1278614200       22.9993288500
  H        19.7638715000       21.3343282300       24.3118578400
  H        18.6986166800       21.8767131900       23.2627048500
  H        21.5947023200       21.6486051600       19.7019905600
  H        22.5896003200       20.4788839200       18.9337091200
  H        21.6385143000       22.9113478900       21.6539803000
  H        20.6743584000       21.7753705000       21.9776065200
  H        18.9758788800       17.4731975600       20.1632209000
  H        18.6540661800       17.7905718600       18.6305235000
  H        24.6973580200       22.1031987400       23.9301422200
  H        23.7721052500       21.3976587500       22.9263277400
  H        22.6729464500       20.6487165300       21.4794154500
  H        23.9087647200       19.7595181000       21.1159231100
  H        19.6181725800       19.5596125900       18.6259411000
  H        20.3779865600       20.7103231900       18.1187643800
  H        16.8054952100       19.9404170400       20.0826698000
  O        17.6016520600       20.1370152200       20.6932167900
  O        18.8726402300       22.4110314100       19.5826145500
  O        21.7227312200       16.0915489000       22.0921031600
  O        21.9776930100       24.0696448000       23.1728497300
  O        19.0590865900       17.8511784300       22.0625228000
  O        23.9495802700       19.2636953100       19.3152758700
  O        20.9720123500       20.5546014200       25.5883163500
  O        17.7355020500       18.3954059400       17.1453068000
  O        22.1447105500       17.4166643300       18.9872038300
  O        21.5904195500       18.5601829900       23.6254891300
  O        19.5292115700       21.3876993500       23.3492974400
  O        21.8281524400       21.1753567700       18.7938504500
  O        21.2660014400       22.0762621700       21.1833124900
  O        19.4514375100       17.6859480800       19.3246916600
  O        23.8312930700       22.2980166000       23.4930307700
  O        23.4250429100       20.1891395600       21.8992777900
  O        19.4962672000       20.2548381800       17.8656709500
      51
 i =        1, time =        0.000, E =      -292.7398546666
  H        16.7433779400       19.8638580400       19.4241963400
  H        20.2928688100       21.7083713800       19.5622150400
  H        19.3997846600       20.5112053400       18.9404463100
  H        20.5026740300       16.8037755300       23.4814395100
  H        19.9883943500       18.1132807600       22.9715598500
  H        23.3534535300       23.9703425100       22.9513201500
  H        22.4721023900       25.1980467000       22.6825603100
  H        17.8849427600       19.3140924100       22.3311379100
  H        18.8325298000       20.2421204900       23.1139265500
  H        23.7624357000       19.5266240800       18.8586152600
  H        24.7855519700       18.4901490800       18.8560039800
  H        22.4979263100       20.0498748400       24.2730933800
  H        22.7722516600       21.5921165400       24.3560639600
  H        20.5385382200       18.7716561900       17.6644697000
  H        19.7981598800       18.3552234700       16.3324027600
  H        20.8751610800       17.3411477000       20.9451183800
  H        19.8315689800       17.2899270200       19.8268192000
  H        22.2986472200       18.0337285000       23.3582806700
  H        23.1478615200       19.1913640600       22.6660486100
  H        20.6347449300       21.5117785100       23.9030018900
  H        19.4127460600       22.4459880100       24.2021060000
  H        21.6865335600       18.2867963100       19.0174465000
  H        21.4401769400       19.9038924700       18.6544752000
  H        21.4150275300       23.1163088600       21.1640880600
  H        20.3564315300       22.4024537800       21.9118152100
  H        17.3187205700       17.9082475200       20.2539575200
  H        17.6279264100       17.0569595900       21.4282008100
  H        25.0928682400       22.1653870700       23.8287985200
  H        24.2278160600       21.7366665200       22.7715132600
  H        22.6538850300       21.0353482900       21.2247783400
  H        24.0672584900       20.1952955500       20.6951769200
  H        18.3687831800       19.4189312500       17.6455341900
  H        17.7591536700       20.8552631900       17.4583469400
  H        15.5254136300       19.2781505400       20.1567495700
  O        16.4480909400       19.4686651400       20.3025877300
  O        20.1964836600       21.0521359200       18.8036222500
  O        20.7255901400       17.4690985500       22.8227004800
  O        22.6184526100       24.3225071700       22.2789399300
  O        18.4779684700       19.3138257900       23.0947564800
  O        24.6378928600       19.3639774300       19.2872456600
  O        22.1026060600       20.8980497200       24.5445606100
  O        19.6081620800       18.4928460800       17.2987202000
  O        20.8200136800       17.3013314100       19.9686549200
  O        22.9596239800       18.6932522700       23.5385239100
  O        19.7525879700       21.8540004500       23.4795398200
  O        22.0944309000       19.0651455600       18.4309394300
  O        20.9389211100       22.2836706000       21.1099840800
  O        17.6489915700       16.9937224500       20.4771867300
  O        24.3724398200       22.5419076000       23.3117218100
  O        23.4544945500       20.4954235000       21.4801027100
  O        17.6812575800       20.0365736000       18.0079555100
      51
 i =        1, time =        0.000, E =      -292.7019810927
  H        17.9156398000       20.0803909200       20.7805016400
  H        19.2514388500       23.1210327500       19.8791849100
  H        19.3225193400       23.4811311600       18.3983884300
  H        19.9462398100       16.2599538100       21.4237440700
  H        20.7261363700       15.1095762600       20.5974405000
  H        21.3066288400       24.9560136500       24.4201520500
  H        22.4276453900       23.9948258500       24.2705041700
  H        19.4912333600       17.5791065000       23.4188019100
  H        18.8570879800       18.1164879600       22.2310224400
  H        24.1645622400       18.4124069900       20.0469849200
  H        25.2065650200       19.5415190300       20.3314047300
  H        21.9758246800       19.1694736400       24.1009914800
  H        22.3650008200       20.6098362400       24.5262656800
  H        18.3101843300       19.3464523300       16.1223689100
  H        18.6022689600       18.5972681900       17.5352120100
  H        22.8450752100       17.4705037100       18.3371036500
  H        23.8847183300       16.2638653700       18.4623010000
  H        23.3681012900       18.7096967900       22.1566573900
  H        22.9119203400       17.2857298600       22.3160583600
  H        20.7562273000       20.5334952100       23.2671456900
  H        19.3129470500       20.5624050600       22.5048002800
  H        20.1753020300       19.2044116800       19.1603945600
  H        21.6701460600       19.8767197800       19.2769052100
  H        20.9963474600       23.4829251800       21.8530564200
  H        20.4931615200       22.0737772600       21.6833969100
  H        18.0803571700       17.8901939400       19.5914627200
  H        19.1495524000       16.7950504300       19.4058145100
  H        24.2942042600       21.8673673400       24.5382910400
  H        23.5416346700       22.2070611100       23.3089059900
  H        22.7904464100       22.5213803300       20.9973053500
  H        23.5906619900       21.2632301500       21.1785342700
  H        17.6316671000       20.1629591700       18.5753680500
  H        18.0016362800       21.4847074500       19.2224074900
  H        17.1980758000       19.8534068400       22.3096437100
  O        18.0006724200       19.6134258900       21.7776078000
  O        18.7016243400       23.0476705100       19.0764354300
  O        20.0348608900       15.8275372200       20.5210461100
  O        21.9883795500       24.7313760500       23.8484144700
  O        19.2524696600       17.2254140700       22.5622221200
  O        24.3372388300       19.1882840000       20.6507717700
  O        21.6312780400       19.9255381400       24.5981754200
  O        18.1454763700       19.3670585400       17.0588531200
  O        23.6304797900       17.1435801300       18.8077358400
  O        23.0453735500       18.0920002100       22.8576589400
  O        20.1837681200       21.0328511400       22.6178854500
  O        21.0947518700       19.2849013500       18.6815441900
  O        20.7015901600       22.9372633300       21.1025703800
  O        18.6414870300       17.4899086800       18.8765770000
  O        23.3678452500       22.2052866900       24.2814274200
  O        23.6210513500       22.2465723900       21.4643299500
  O        17.9583353400       20.5268805200       19.4975302700
      51
 i =        1, time =        0.000, E =      -292.7131837011
  H        15.8321985000       20.5090263000       21.4182057000
  H        19.3355430400       21.4610644200       19.8677728200
  H        18.9493583500       20.9498357000       18.3473070300
  H        21.8522393700       15.7546502300       21.5535435000
  H        20.9594174400       17.0509409400       21.7502253400
  H        21.3074041100       23.7951717900       23.2108723200
  H        20.2307517300       24.3924103600       24.0033484700
  H        18.8938931400       17.4538888000       21.3280656100
  H        19.3562670700       18.7757987300       22.2785431400
  H        24.8418499900       21.1343860700       19.0742133000
  H        25.6103541700       19.8678189000       18.8482673900
  H        21.8816184100       19.4526479300       23.9532129200
  H        21.5854841300       20.5782763100       25.0030469800
  H        18.9599707800       16.7655578300       19.0222007800
  H        17.9059427900       15.8004434000       19.6528426600
  H        22.7626465300       17.7895269500       19.8148678700
  H        22.3279315300       18.0665833600       18.4056106600
  H        22.9165599400       17.8955394300       23.0222827600
  H        23.1988483200       19.2766118000       22.3980753800
  H        19.8289050000       20.1794930300       23.8897812100
  H        18.2963240000       20.0164164700       23.9904036500
  H        22.6010326800       19.9059413700       19.3693307200
  H        21.5919712700       21.0823453200       19.2274954800
  H        19.4821396200       23.1113137300       21.5296456000
  H        18.9271641400       21.6837047200       21.8579409400
  H        20.4074800800       18.3703637700       20.0168376900
  H        19.9817685600       19.2164018300       18.8741937100
  H        23.7660044700       24.1539554700       23.3142503600
  H        23.7633405900       22.7081528400       22.7448660700
  H        23.3470043600       21.3935061300       20.6725787200
  H        24.7080715300       21.1083692300       21.2761013500
  H        16.8732966200       19.3260557300       19.2431880300
  H        16.7270610100       18.0296635200       18.4720177300
  H        17.2356905900       20.7015001500       21.9526334700
  O        16.7700420300       20.3075908100       21.1871456300
  O        19.7159666200       21.0958251900       18.9527041200
  O        21.8915551300       16.7161384900       21.4205361400
  O        20.4305304500       24.1744550700       23.0564633400
  O        19.6014913600       17.9317508600       21.8765477000
  O        25.7477904300       20.8171340800       19.0788312400
  O        21.1126592500       19.9132338100       24.5439724900
  O        18.2195318500       16.7170115400       19.6983609300
  O        23.1486896700       18.0501121300       18.9421856100
  O        23.1401421800       18.8741012700       23.2550009700
  O        18.9596669700       20.1951710200       23.3010634300
  O        22.5724144200       20.8705103200       19.4210803900
  O        19.0994511000       22.2661510200       21.1202423500
  O        20.3567255100       18.3331698900       19.0346318100
  O        23.2464124900       23.3587687800       23.2963256100
  O        23.8065789200       21.2654718300       21.5636075700
  O        16.7889355200       19.0069542200       18.3332932300
      51
 i =        1, time =        0.000, E =      -292.7108360871
  H        17.1175478800       19.6331436700       19.7543695800
  H        20.0641668000       21.4486666700       19.8162090500
  H        20.7697655300       22.4428219500       19.0248076300
  H        19.9848201400       16.5895449900       22.3672420900
  H        19.0995406000       17.6716026500       21.8830223000
  H        21.6291637500       24.5668501200       21.2724261100
  H        22.0350390800       23.0489995400       21.1070728000
  H        17.5106094900       19.2685792800       21.9038715100
  H        18.4944583200       19.7591520200       23.1137978700
  H        23.8080949000       20.5972428000       18.5489513700
  H        24.3441923100       21.9925333700       18.4951431600
  H        21.9951298100       19.2476774700       25.0818172100
  H        22.2603286900       20.7209478600       25.2914079000
  H        20.4230628100       18.3481559600       16.1507552000
  H        21.6012898500       18.1806281000       17.0363414500
  H        21.9367335100       19.5017649300       21.6734325200
  H        21.1497237600       18.1128627900       21.4321262900
  H        23.7998066500       17.9864260800       23.9479950500
  H        22.5807753600       17.9857169400       23.0520053600
  H        20.3834749600       20.5923230000       24.2331913700
  H        19.1646547800       21.3697742500       24.5465701300
  H        22.3095721000       18.4511831000       19.0217321000
  H        21.6800359900       19.8589592500       18.6506856800
  H        19.3034273500       22.9708501000       20.9718911500
  H        19.2470916600       21.9158022000       22.1276942700
  H        19.9448339300       17.2381786500       17.8827492000
  H        19.5646428800       16.8804389700       19.3743789400
  H        24.4772810200       22.7541997600       25.1002996100
  H        24.7826849200       21.2453474400       24.8831826500
  H        23.7061557500       21.8789467400       22.5058831500
  H        24.0949803300       21.5939004700       20.9671384100
  H        18.7972673800       18.9913344700       18.6761557700
  H        18.7956762300       20.4903735700       18.3804066800
  H        16.2787694500       18.5121219300       20.1941199600
  O        16.6238825700       19.3465952800       20.5285084500
  O        20.4832247900       21.5489113500       18.9153770900
  O        19.8222758300       17.1098776000       21.5671615900
  O        21.3643352900       23.7986691700       20.7966508800
  O        18.0871166500       18.9270604400       22.6523476100
  O        24.3558792100       21.2319314200       19.1222174600
  O        21.5510597700       20.0742074400       25.4496818800
  O        20.9441021800       17.6252169400       16.5381409700
  O        21.9970599900       18.5301508300       21.6860187700