      54
 i =        1, time =        0.000, E =      -309.9059198572
  H        18.8742582000       17.4744250700       17.2130159600
  H        20.2889391500       17.9629427500       18.3873067100
  H        21.1515342000       18.0621515700       16.9966892900
  H        19.7324150700       16.8119272000       21.7910819000
  H        18.3701936600       17.4483095000       21.0260494900
  H        17.3530767000       23.9963607700       21.1049604500
  H        17.9292303400       24.5857097900       19.9049003200
  H        17.3415014400       17.3943205800       19.2917935600
  H        17.3708905700       18.6907868600       20.1800311700
  H        19.5746985000       26.0177881700       18.9979172700
  H        20.1786590400       24.6075757500       18.7116476500
  H        21.3559520200       21.7725323000       21.0346265700
  H        20.3008493300       20.9219572500       20.4908743100
  H        17.3479091400       20.2588021000       15.8996065500
  H        16.7458054500       20.8250006600       17.2325604200
  H        24.0808036600       18.9904774100       20.4563604700
  H        22.7372533200       19.6312409400       19.9014385800
  H        18.3391749200       18.6811617600       23.0159169900
  H        19.3313227900       19.8520687100       23.5019526700
  H        17.6422099500       22.7188737000       17.5258994400
  H        16.7855998900       22.9146206700       18.7868769000
  H        23.4711097800       20.4793146100       18.3435398600
  H        24.2800259200       20.6865970400       17.0451394600
  H        19.2633090100       19.7236642400       19.7044686600
  H        20.0100535800       18.5256021800       20.3905996900
  H        24.6777147600       16.0479219700       20.4236473500
  H        23.7277875800       16.1781173200       19.2292070600
  H        18.9235738300       22.2114657400       22.0621588900
  H        17.8196017400       21.9776610400       23.1798998800
  H        21.5011391200       22.1642810100       17.5144635200
  H        22.5758028500       23.0166569500       18.1191125000
  H        21.8805141300       14.8882167000       17.9159873300
  H        21.9351196700       16.3478590200       17.6453969300
  H        17.9831914200       21.0989521400       20.8252479900
  H        17.6497561300       21.0545497000       19.3273175000
  H        17.6296962200       18.4902806200       17.1495697600
  O        17.9116517400       17.6263500500       17.5186055800
  O        20.6193280000       17.4952839400       17.5472487500
  O        19.1860881900       17.5901745900       21.6706751400
  O        17.0906341900       24.1450567900       20.1691493600
  O        17.2185670200       17.6421318100       20.2341558100
  O        19.4818247700       25.0800047800       19.1962922300
  O        20.5331262100       21.3385750600       21.3571400000
  O        16.8570884100       19.9690253800       16.6877862700
  O        23.6905863400       19.7489947200       20.0028894700
  O        18.3303386800       19.6225729500       23.3794755400
  O        16.8526133600       22.3290115800       18.0030698100
  O        23.3066261800       20.6438888100       17.3218722800
  O        20.1099730500       19.0610862900       19.5699128700
  O        24.2180287900       16.7597701100       19.9625739600
  O        17.9924027100       22.4088487800       22.3099719200
  O        21.6074448600       23.0911098500       17.9020516600
  O        22.6141132700       15.6399977700       17.8020809500
  O        18.0608164800       20.5107997200       20.0241737700
      54
 i =        1, time =        0.000, E =      -309.8986783642
  H        18.9521254200       16.6168673800       17.4351610300
  H        21.4578713400       19.7156519300       16.3088982600
  H        20.4020094100       20.3951477500       17.4518127800
  H        17.1004406400       16.7519958700       22.8956819300
  H        17.1115747100       17.6690452900       21.6158819300
  H        20.5074964800       22.0641204700       20.3667032000
  H        20.2171136700       23.4670237500       19.6588053600
  H        17.9690757900       17.8552983600       19.2826428900
  H        16.9809990300       19.2424463300       19.9266651600
  H        21.0068915100       24.2197816900       17.9851613700
  H        21.9685890200       24.3278078000       19.1414211700
  H        20.5980151900       19.9331124800       21.1703555800
  H        21.4747927800       19.9865433100       19.7796733000
  H        17.2872622100       21.7309932000       17.6951550500
  H        17.0205352100       22.9172188300       16.6937471400
  H        23.2319954600       18.4631306200       20.2194509500
  H        23.8386528600       17.4988060700       19.2426213900
  H        18.9421703300       18.7437208700       20.7763339300
  H        19.1648457000       17.9128707800       22.0104175500
  H        16.9015760300       22.7839124700       19.4524850200
  H        18.0266029700       22.9188036800       20.3261526400
  H        23.0457608200       20.8668657600       17.8044669200
  H        24.0296780100       20.0928409100       18.6697089000
  H        19.2754207700       21.6316591500       18.8336017800
  H        18.6523030600       20.1471555000       18.7087898500
  H        21.5891214900       15.1107222600       19.6782463400
  H        20.6186939400       16.2241119100       19.9919103500
  H        18.3663444700       20.3023885100       22.8067790100
  H        17.8748172200       21.7845311200       22.3740688800
  H        23.6990869400       22.2777646300       19.1826039100
  H        22.5137446300       21.8362316800       20.2392993800
  H        21.1497898100       16.4610870000       17.4870595100
  H        21.1415198800       17.8460726500       17.1152393800
  H        16.2838543900       20.2545408000       21.3640435900
  H        16.2326854100       21.2323847700       20.3289181600
  H        18.4357994100       15.6980969000       18.4893846600
  O        18.0685303500       16.3697638800       17.8224796800
  O        21.3494417900       20.0435822700       17.2627665200
  O        17.5856216100       16.8693838900       22.0197983800
  O        19.7664769800       22.5871859300       19.8958626300
  O        17.8549206600       18.8583458200       19.5853496000
  O        21.1145294400       24.6999167300       18.7916475600
  O        21.2702588100       20.5453608300       20.6055076500
  O        16.7181686600       22.4872857700       17.5762231800
  O        24.0656069300       18.3733187300       19.6786181600
  O        19.6094385300       18.6318355000       21.4808195400
  O        17.0673433600       22.8887346500       20.4042120000
  O        23.9742790500       20.9137211700       18.0984525600
  O        18.8664606200       20.9544560500       18.2145218600
  O        21.4166283900       15.9923049900       19.4037783500
  O        17.5259088800       20.8286777000       22.7210047200
  O        22.9311144400       22.6494706000       19.7368799300
  O        20.8376143900       17.0130541700       16.7533908700
  O        15.8536807900       20.3446595400       20.4703322200
      54
 i =        1, time =        0.000, E =      -309.9541368179
  H        16.1846954300       15.9099841800       17.8474169900
  H        21.0120392800       20.1872281200       18.1970919800
  H        22.2154915600       20.2286664400       17.1498432500
  H        17.5814340700       16.3417950800       21.6865145800
  H        17.0364072500       17.5642153800       20.8176812200
  H        19.1378686000       24.9964315700       19.5306703200
  H        20.1676048200       23.8907783600       19.0723528700
  H        16.7733967100       17.8959082200       18.9309167300
  H        16.9194030100       19.4569848400       19.5887867300
  H        21.6954562300       22.8736415200       18.2000472900
  H        22.4635421200       23.4895758300       19.4936507000
  H        20.4139928700       20.4102332400       22.5307643700
  H        20.7146633900       20.2451700600       21.0506928300
  H        19.7951684700       20.1685740600       16.3094404700
  H        18.2250777200       20.1102349800       16.7663907500
  H        21.9158453200       17.9777489100       21.0183154700
  H        22.7756567800       18.9909660800       21.6166602700
  H        18.6763730700       18.3410955100       22.4538279300
  H        18.2898630700       19.5993889800       23.0915130800
  H        18.1440672400       23.0761874600       16.0044164900
  H        18.6596996600       23.4242437500       17.3988146300
  H        23.6430837500       19.4827450700       19.2923094800
  H        23.7775603200       21.0249828700       19.5828419500
  H        19.2143442000       20.1915961200       19.4171413200
  H        19.9167644700       18.7754682900       19.6765833000
  H        19.9279770500       16.8761942500       19.0485472700
  H        19.0533308200       17.2585624200       20.4133169300
  H        18.9153982900       23.1490924200       20.5419414400
  H        19.4356814800       21.9035207100       21.3968435000
  H        23.7293203700       22.7012583500       21.4282428600
  H        22.3412955600       22.0844567100       21.6215936800
  H        19.5175896400       16.5063854300       16.1422682700
  H        19.3275435900       17.9511730200       16.5022655600
  H        18.0274765400       21.5551764100       20.0099765900
  H        17.5563987000       21.5975489500       18.4463397800
  H        17.5945089100       16.3380741800       17.8377612300
  O        16.8743919400       16.1045563000       18.4648459900
  O        21.2697296600       20.5433905200       17.3083582000
  O        17.6518348600       17.3185269900       21.6074941500
  O        19.1452328500       24.0794653700       19.1812420300
  O        16.5348686900       18.5344440300       19.6662409000
  O        21.6941303500       23.5806563400       18.8778855100
  O        20.9234789500       20.8250531400       21.8045933800
  O        18.9452078700       19.6281709300       16.3663673300
  O        22.8056150500       18.3806823700       20.8439320000
  O        19.0867045400       19.1159070700       22.9133887200
  O        18.3971077200       22.6464446300       16.8593088800
  O        24.1565519000       20.2316178600       19.0545916000
  O        20.1001696500       19.7558580400       19.5218875800
  O        19.9758343200       17.1159229000       20.0137418400
  O        18.5847721000       22.3815198200       21.1100959200
  O        23.0013898300       22.3617236400       20.8671461400
  O        19.3342621700       17.0369641200       16.9503827800
  O        17.5392241200       21.0576764600       19.2610725900
      54
 i =        1, time =        0.000, E =      -309.9522445098
  H        18.1695839100       17.1337121000       16.1356193800
  H        21.9688827800       20.1427697300       17.0513614500
  H        20.7501011300       19.5544241500       16.1413163900
  H        19.5663879800       17.1169235600       20.4511557200
  H        17.8611831200       17.5071786800       20.6009336600
  H        17.6765018800       22.6958895300       20.6720544400
  H        18.8297249600       23.8891853000       20.2063184400
  H        17.4258550000       17.4521847700       18.7423569100
  H        16.4160675400       18.4763961600       19.2825853400
  H        20.4566781300       25.6979417200       19.5816413400
  H        21.0198468600       24.3677607500       20.3507628400
  H        21.4742811100       19.9566097100       22.5959992300
  H        21.2056949900       20.4224830900       21.1556709200
  H        19.3573865000       20.5747649900       17.6659929800
  H        18.5238460100       21.0773989100       16.5140917000
  H        22.4226257300       18.6314145800       19.8981568200
  H        23.3973284000       19.6636102800       20.6427859300
  H        19.5130524900       18.7180015500       23.5800351600
  H        19.3559760600       18.1347490700       22.1219451700
  H        16.0049003400       22.4786388000       16.9922955500
  H        16.9300740700       22.8062361300       18.2015005100
  H        22.8612030300       20.7522993000       18.7805825700
  H        23.6972380900       21.5624929100       17.7164643100
  H        19.4993211500       19.9366920500       19.7590598800
  H        19.4666963300       21.5027556200       19.7229984200
  H        21.7307932600       16.0916187700       20.7111500300
  H        21.3488886200       16.8183992800       19.3496746900
  H        17.1911276100       20.9146849100       22.7350262900
  H        18.2644254200       19.8738388600       22.1999842700
  H        22.4066318900       22.6008917600       19.6342069100
  H        22.0585501200       22.3938139400       21.2609012000
  H        20.4042244900       16.8549919300       17.4485225800
  H        21.8181226400       17.5702068100       17.2518596500
  H        16.4803331900       20.5215998500       20.4801199900
  H        16.5726468300       20.9205808400       18.9045904200
  H        18.4995309800       18.4809444800       16.8356840600
  O        18.5610649400       17.5018214900       16.9779742100
  O        21.6347354600       19.3355096200       16.5425010700
  O        18.7450932400       17.1881806300       21.0995734900
  O        18.1561622700       23.1590712700       19.9084463100
  O        16.6312801800       17.5163601800       19.3302842800
  O        20.2419009200       25.0424858200       20.3025410900
  O        21.9033261800       20.4971481300       21.8508609500
  O        19.0497520400       20.3350513500       16.7759803500
  O        23.1969993100       19.2583949100       19.7116186800
  O        19.5943778700       18.9865807400       22.6900316500
  O        16.8417227500       22.1365000800       17.4714489600
  O        22.9375275000       21.5810578200       18.2940072500
  O        20.0741752200       20.7270557800       19.4884830200
  O        21.2340403000       16.9076028500       20.3622463800
  O        17.4642049300       20.4276250700       21.9683741700
  O        22.1407741800       23.0581700400       20.5183417500
  O        21.3265956300       16.8142675100       17.7458475900
  O        16.2962436200       20.1804102200       19.5545270700
      54
 i =        1, time =        0.000, E =      -309.9386408009
  H        18.8689552400       16.8648135200       18.0362182700
  H        20.5407426000       19.5205351800       17.1205516800
  H        21.5438507300       20.0183009100       16.1679931200
  H        19.7215294300       16.1056900200       22.1268124600
  H        18.7222433100       17.2889495400       21.7209144100
  H        18.4676739300       21.7866054000       21.3439244900
  H        18.4930271300       22.9497864800       20.3084303800
  H        16.7681146400       16.6987353900       20.8938451400
  H        16.5665652900       18.1923426600       20.7693651900
  H        19.7363391400       25.3098075700       19.1793881300
  H        20.1534615700       23.8763648000       18.8461367200
  H        22.6204088400       21.8278234400       22.6049466700
  H        21.8556822300       20.4437675200       22.3746462500
  H        18.1006844000       19.9264911600       16.3070959300
  H        17.6348587500       21.0666622200       17.0823624300
  H        23.4455717900       20.5660189700       20.3469059000
  H        22.8958093900       19.3418396400       19.7131058900
  H        20.0662873000       18.3596464400       22.9435709000
  H        20.4628883700       19.1946545900       24.1793948300
  H        18.1968055100       23.3963888100       17.6634135200
  H        18.0294054800       22.9555531400       16.0656171100
  H        23.5983879500       20.5560049700       18.0544737300
  H        23.4434450600       21.9106561900       17.2415763400
  H        19.4994137200       21.2177188500       19.2503329500
  H        18.9070712000       20.1500523200       18.3845691400
  H        21.0179237000       17.9367530700       20.5513193600
  H        20.6154736100       19.1753409800       19.6242914200
  H        17.3415230900       20.2746594700       22.8964741500
  H        18.8820820900       20.2760779900       23.0729229500
  H        21.9322842100       22.1079395900       18.4576263300
  H        21.4668046300       22.6121379400       19.9724676900
  H        20.9516266400       17.5737058200       18.1919689000
  H        20.7704831400       17.5639223400       16.6600670000
  H        16.7350095000       20.6970413800       19.9333980200
  H        16.6130911400       19.8173837100       18.7022914000
  H        17.4397597600       17.3945998500       18.0975232700
  O        17.9061935800       16.5013222300       18.0982842200
  O        20.6662677600       19.5011895800       16.1597320200
  O        19.7118074700       17.0585962400       21.8657382500
  O        18.3366877400       21.9873929000       20.3693282400
  O        16.9960069900       17.5182578300       21.3550017300
  O        19.3238882100       24.4401181700       19.0694140000
  O        22.4237036300       21.1529536900       21.9779585400
  O        17.3503051000       20.0829019900       16.9514821400
  O        23.7076766300       19.9936426200       19.6035092900
  O        20.4658939200       19.2334457100       23.1835281000
  O        17.9791082000       22.7402361600       16.9983134900
  O        23.2108602500       20.9856008500       17.2155109700
  O        19.7542943100       20.3984295400       18.7847623200
  O        21.2422031700       18.4431638400       19.7609801900
  O        18.0681461400       20.8885461000       22.8631078300
  O        21.5843254900       22.8891023400       19.0279985300
  O        20.7581378200       16.9604057900       17.4304256200
  O        16.4512512800       19.7733580400       19.6568351600
      54
 i =        1, time =        0.000, E =      -309.9594654090
  H        18.7282217400       17.4041279200       18.6443589200
  H        21.5540784000       21.0885936900       19.4990927300
  H        22.0086296000       21.0016894700       17.9496635800
  H        16.6555170200       16.7313071600       22.1158993300
  H        16.6902720600       17.8565026000       21.0311972000
  H        19.3423380500       25.4862011600       17.1082888400
  H        20.2027368900       24.3847147700       17.8917093100
  H        16.6590308700       18.0388870300       18.7309149000
  H        16.0724555000       19.3143367300       19.4884730300
  H        21.8206889500       24.4717257100       20.0732788400
  H        22.3565579600       23.2150569400       19.5260997300
  H        20.5003361800       20.0723780500       21.7438100000
  H        19.9491712500       21.5102801100       21.8024322500
  H        18.2138607400       19.6465403800       15.2926502100
  H        18.4113989800       20.5378503300       16.6387976200
  H        24.0876646500       17.7220663700       19.3130196000
  H        22.4788667500       17.9282745800       19.5601741600
  H        17.7480468000       18.2234198000       23.1112338400
  H        18.6615482700       18.8325534500       24.1540202700
  H        19.9827574900       21.7871294900       17.9952027100
  H        18.9780147600       22.7820228700       17.2697256000
  H        23.4259468100       19.3205207900       18.2421805300
  H        24.2204041900       19.9882814600       17.1034726200
  H        18.5727506500       19.4529377500       20.4533303200
  H        18.9617734100       18.0349559900       21.1996644300
  H        20.5171573200       18.2104804900       19.8172686500
  H        20.8637998200       17.7618858600       18.2683103300
  H        16.8108719600       21.8522986900       23.1498063700
  H        17.7473851200       20.5804199700       23.0825620200
  H        23.5175777500       20.7917420000       20.4245110500
  H        22.2166380600       21.3160289100       21.2542233500
  H        20.3926801300       18.7880767600       16.4263303400
  H        22.0304690400       18.4828779800       16.4749794900
  H        17.5814642000       21.0939295200       20.7062173300
  H        18.0268794300       21.2752494600       19.0947233800
  H        18.3595875300       18.2631216600       17.3586698200
  O        18.0413979400       17.5265290100       17.9586154600
  O        21.2459747900       21.0424760800       18.5297571200
  O        17.2275154600       17.3928703800       21.7332748900
  O        19.4790555400       24.5365446700       17.1958407900
  O        16.0131108700       18.3544365200       19.4741470400
  O        21.7138638500       23.8887891300       19.3384099400
  O        20.7381480200       20.9836603400       21.9312541400
  O        18.4860800700       19.6428159900       16.2172027400
  O        23.4706127700       18.3983459000       19.6476009500
  O        17.7983766000       19.0376340100       23.7270877600
  O        18.9607415800       21.9448400700       17.7678838900
  O        23.3265584100       19.7900494300       17.3452150900
  O        19.3123409200       18.8797494200       20.9161551300
  O        20.8641117000       17.4611196400       19.2269357700
  O        17.4738889000       21.3891183400       22.5956427300
  O        23.0183983000       21.6057178100       20.7097179900
  O        21.1001125700       18.0838158900       16.4766407700
  O        17.5251960200       20.6976550400       19.7625877400
      54
 i =        1, time =        0.000, E =      -309.9409114992
  H        16.6769477400       17.9370348800       17.1043845400
  H        20.1147392000       21.1025801600       18.0732632500
  H        21.3410283800       20.6109932200       17.1344909200
  H        17.7702406400       16.7047262500       22.3768742600
  H        18.3857544000       17.7670507200       21.5029101400
  H        19.5042820800       22.2824006900       20.2110674900
  H        20.6659569300       22.8903266600       19.4104221100
  H        16.6807181200       19.0090017800       19.7356343100
  H        15.6178048400       19.6125835300       18.8438205900
  H        22.2771301500       24.9026088200       20.3771461500
  H        22.6795213300       23.3873084800       20.5961620400
  H        20.9533665900       20.0411697400       22.8092959400
  H        20.7016404100       20.1673451600       21.2605284600
  H        19.0951709300       20.7554976600       15.8398773600
  H        17.5658605400       20.8800346200       15.4379623600
  H        23.3682393100       18.9152436800       20.4306527200
  H        22.7757544800       17.6852611800       19.5133463800
  H        19.3422584800       18.2973344500       23.2235542900
  H        19.6274485300       19.1785220400       24.5187886800
  H        17.2512051800       23.6419215600       17.9896048600
  H        18.3842514700       22.6851585300       18.0833665200
  H        22.9626052700       19.3867340500       18.2454442400
  H        23.2432548500       19.3414660300       16.6310200000
  H        19.5926756400       18.5541310700       19.4306905300
  H        20.4143142400       18.0315160100       20.6817982500
  H        21.7739088700       15.7411013200       19.8530239800
  H        20.9867019100       16.8805645600       18.9173831800
  H        19.7631869900       21.7260130900       22.3063624500
  H        18.1370337400       21.9577896200       22.1339588500
  H        23.2934537600       21.2249471600       19.9174135000
  H        22.5090073500       21.2236294600       21.3169190100
  H        19.0897984300       17.6440407900       17.5996193200
  H        20.0248043700       18.8778481100       17.7090465300
  H        15.5402771700       21.7843321600       19.7159291100
  H        16.2722103500       21.8752727200       18.3034037400
  H        17.6933276500       18.5488269300       16.1505709600
  O        17.5043368300       17.6504244500       16.6201193300
  O        20.3293355000       20.5783574200       17.2875183800
  O        17.9504909500       17.6544440200       22.3530514000
  O        19.7653253200       22.4092132200       19.2709699300
  O        16.1280264600       18.7623587200       18.9386706100
  O        21.9296156300       24.0162915300       20.4534168400
  O        21.1297433200       20.5696526000       22.0029138000
  O        18.3199541000       20.2584121000       15.4613634600
  O        23.3238233800       18.6169033500       19.5413805400
  O        20.0667864800       18.8925627100       23.7012543800
  O        17.4510959400       22.7185365200       17.7776036300
  O        22.8016268000       19.8805905700       17.3138532600
  O        19.8374055500       18.7941260800       20.3925647200
  O        21.6457892500       16.6705415300       19.6614231600
  O        19.0645743400       22.3720646100       22.0477865900
  O        23.2525417200       21.6092913400       20.7937493500
  O        19.9304522700       17.9356026800       18.0589814700
  O        15.5076864600       21.3925594500       18.7898086200
      54
 i =        1, time =        0.000, E =      -309.9299090952
  H        15.3679904000       18.0187269300       17.7877809400
  H        20.3122250100       18.8688563500       18.6667578100
  H        21.6416652500       19.1881446000       18.0155172300
  H        17.7985876100       16.6854332400       19.7044005300
  H        17.0417192800       16.9949981200       21.0252241300
  H        17.4844250800       24.8714656200       17.4869485500
  H        19.0064893900       24.5537311200       17.5412551500
  H        15.8975125800       18.2965240900       20.0883841300
  H        16.4817336300       19.0098105600       21.3258735300
  H        21.4866423800       24.7708189300       16.8650485400
  H        20.8147967700       23.4891985000       17.1960584800
  H        20.8531515600       20.8371415700       22.0276208200
  H        22.1373110300       21.4612880600       21.4840263600
  H        18.8970222400       19.4576620300       17.1064940000
  H        18.0407298800       20.5150972500       17.5801744100
  H        24.2564360500       19.1229558800       21.9545971000
  H        22.8023100300       18.8886046300       22.0411071100
  H        20.3456539000       19.0087755600       22.2343679300
  H        20.4289717900       19.0364087800       23.8265177900
  H        16.4343827300       22.2201598300       17.7806227600
  H        17.6097769000       22.9993255600       18.3107975500
  H        23.3870350400       19.2596043700       18.8897150800
  H        23.9976036000       19.7495071400       17.6107438300
  H        18.6962565600       19.7038853600       20.2703862500
  H        18.9463638400       18.1270026400       20.6481412300
  H        23.0868684300       17.1536827300       20.0571155000
  H        22.6535715200       16.7156675300       18.5536384700
  H        19.9948186600       22.7713284100       21.9781491600
  H        18.8482673700       23.5833192200       22.7290010800
  H        22.3208466100       21.5513818100       18.0938731300
  H        21.3962677200       22.1138364600       19.2168985400
  H        21.8916991700       16.8543631000       16.1760623000
  H        20.9532651600       17.1027338600       17.4405442000
  H        17.7680496300       21.2676200100       21.6189914300
  H        17.0089198600       21.3214095100       20.2688808200
  H        16.7328476500       18.7869237600       17.8723345200
  O        16.1780165000       18.0856242800       18.3250135600
  O        20.7180777600       18.9482483600       17.7402675200
  O        17.9692661300       16.7776617800       20.6781366300
  O        18.2045671200       24.4304834500       18.0982420400
  O        15.8858281500       18.2161367100       21.1316949800
  O        20.5961767600       24.2913464300       16.7064969200
  O        21.1190331800       21.5767626100       21.4300970800
  O        17.9240029900       19.6551648400       17.1067764500
  O        23.5248210000       18.8564298600       21.3524649700
  O        20.9161830200       19.3332834900       23.0109448500
  O        17.2194062100       22.0949113300       18.3921434100
  O        23.4211096300       20.0205822200       18.2790477700
  O        19.4508169300       19.0297881000       20.4216172900
  O        23.2376400000       17.3568756700       19.1350883000
  O        19.1611492400       22.6586630500       22.5332314000
  O        21.5651312900       22.1794920700       18.2708972500
  O        21.5032182000       16.4060667700       17.0045240300
  O        17.2971441400       20.6687798700       20.9701887500
      54
 i =        1, time =        0.000, E =      -309.9492889890
  H        18.6609177700       18.6483173500       17.9911381700
  H        20.3558800900       19.3068320800       19.4978924800
  H        21.2990951100       19.7547434600       18.3664868000
  H        19.0930684200       16.6267697900       20.7642183000
  H        17.9292773400       17.6847047100       20.5681197800
  H        17.8710918000       25.6294015600       19.0986718500
  H        19.0267050200       24.7568826300       18.7854283300
  H        16.7095524400       17.9105759000       19.1750971800
  H        16.3939410500       18.9489729900       20.3073261800
  H        21.3528464800       24.7731419800       17.2636786600
  H        21.2420380800       23.4975410400       18.0306978100
  H        22.8512182800       20.4061707400       20.6375192100
  H        21.6203999400       21.1684110600       21.1686188400
  H        18.2223945500       21.0269315100       16.5246439700
  H        16.7580140800       21.1025955200       16.8902900700
  H        23.9485738900       17.5133517300       19.6379160000
  H        25.1139947100       18.3328059700       20.1374957300
  H        18.1290618200       17.9509019200       22.6452908800
  H        18.2761349800       18.2214118700       24.2313572000