      27
 i =        1, time =        0.000, E =      -154.9400539434
  H        17.7587985000       17.6203797500       17.6351323900
  H        19.9246489600       22.3337052000       20.7112663400
  H        20.4356317700       20.9178387400       20.1371051400
  H        22.2697235200       18.9087961700       19.3212171900
  H        23.5017391200       18.3248506500       19.8873079800
  H        18.5677232400       17.6511025900       21.7315130900
  H        16.9881489600       17.8257930600       21.8516865400
  H        19.5795351400       18.6093601400       18.7375497000
  H        20.2418406300       18.2922421300       20.1158596400
  H        23.2342553400       19.7240434500       21.8298488200
  H        23.3984889200       18.7524423000       23.1046087400
  H        21.1204408500       16.4424341600       21.8388483700
  H        21.1375487500       17.9812905300       22.1211528800
  H        18.3821228400       20.8700561500       17.9190090200
  H        17.0721769400       21.3817294900       17.2157655200
  H        23.7210443500       21.0253125800       20.2423401200
  H        22.6514350400       22.0013367600       20.7027286300
  H        17.9397146500       19.1336266400       17.2437882500
  O        18.4357368100       18.2413062000       17.3555762700
  O        20.5749921100       21.9111302600       20.1330027800
  O        23.1840320500       18.8394483700       19.1061288100
  O        17.8471338300       18.3130729600       21.7939288700
  O        20.1151950300       19.0409130300       19.4421469100
  O        22.9152539700       18.8232356600       22.2524841400
  O        20.6139061600       17.2824236500       21.6864690100
  O        17.8030940700       20.7685360900       17.1179038800
  O        23.4103475600       21.4305454900       21.0823777600
      27
 i =        1, time =        0.000, E =      -154.9414060796
  H        17.6242258800       17.7444378900       18.0561672000
  H        19.4957457400       18.5942717300       18.2290613200
  H        20.9731702500       18.1848646800       18.7549101800
  H        21.0912493100       17.3076293800       20.3899957000
  H        22.6875112900       17.4171591600       19.9860675200
  H        20.2832749800       20.8230279900       22.1837935600
  H        20.6979395300       20.8907991700       20.7299000500
  H        19.1674173900       17.9680706800       20.6918084500
  H        20.1843376600       18.7121875900       21.6413460800
  H        23.0010689000       21.2153269400       19.6367620900
  H        23.5784471000       22.0322861900       20.8347942100
  H        23.8768209800       19.2477151400       22.5618957400
  H        22.9518955200       19.6672272500       21.3868039500
  H        16.6300009100       21.5374372200       20.4378462100
  H        17.9592558700       20.7148317300       20.1888645700
  H        22.0279107500       21.0014972800       16.8050526900
  H        21.3618758800       20.3476590400       17.9908348500
  H        17.0906116600       18.7324644000       19.1738953500
  O        17.5612107300       17.8658070500       19.0310299600
  O        20.4638584500       18.7742956000       18.0809744500
  O        21.8034643400       17.0224437100       19.7082480200
  O        19.9596323200       20.5565221400       21.3169337700
  O        19.8907314400       17.8280169800       21.3592227200
  O        23.0055873000       21.3140994100       20.6139123700
  O        22.9542673200       19.1708854500       22.2572525400
  O        17.0440097800       20.7477849700       19.9903983100
  O        22.0431812600       21.0971584300       17.7800733400
      27
 i =        1, time =        0.000, E =      -154.9641374275
  H        18.9141524400       17.0777010500       17.9175018200
  H        20.9392280400       21.0688970500       18.0710198400
  H        20.5894335100       21.4067714700       16.6391650300
  H        23.0444426400       18.4075740600       17.8205793300
  H        22.6914998700       18.0142964000       19.3480800000
  H        18.3903355400       18.9383387800       20.5035211400
  H        19.0579995100       19.2865138000       21.8158379600
  H        20.1813712800       17.5102875400       20.0124544500
  H        21.0632169200       17.8083632300       21.4082892200
  H        21.8249485500       21.1191364800       21.6207248600
  H        22.9931038200       21.2879966500       22.6471764300
  H        20.4718637700       18.6244896400       23.8642285500
  H        21.2586099000       19.6473595900       22.9645512100
  H        18.7601507600       20.5388571000       17.9181750500
  H        18.1741897000       20.4064887900       19.3236739900
  H        22.5323538800       20.1442548700       19.2956643700
  H        21.3269705200       19.5181816300       20.1434763700
  H        18.5959145100       18.5717258200       18.4691541400
  O        18.9467666500       17.6123944300       18.7614585700
  O        20.3905234100       20.7450076400       17.3185905500
  O        23.3829673300       18.2715768200       18.7294383600
  O        18.3815306800       19.6643172900       21.1858799500
  O        21.1042966100       17.7903492400       20.4390604600
  O        22.0148111700       21.1937187200       22.6002001300
  O        20.7559046900       18.7563558000       22.9293747600
  O        18.0080713500       20.0786609000       18.4132260100
  O        21.7330679700       20.4386283100       19.7542974200
      27
 i =        1, time =        0.000, E =      -154.9567236280
  H        18.1837819400       18.2142984500       19.9869200700
  H        20.9088857800       20.1511526800       18.6815622700
  H        19.3751754400       20.3018364400       18.9118475100
  H        23.7089837600       17.4443241800       17.9163996200
  H        22.4530191000       17.7489220800       18.5672379200
  H        18.9541315800       22.0345462400       20.9461333100
  H        18.7705667200       20.9698036300       22.0018617200
  H        20.3203885500       17.1203333700       19.7796167800
  H        21.7842062000       17.2496623300       20.5923680300
  H        23.5791679300       20.0622438900       21.7713479400
  H        22.6889521500       20.0572084800       20.5279325000
  H        19.7856227700       18.6873837000       21.1034980700
  H        20.8711592800       19.5174195900       21.8351550200
  H        16.6144714500       19.6593090900       19.5288973500
  H        17.6265296100       20.4453937300       20.4923406000
  H        23.3437161700       21.2233734500       18.2763304900
  H        23.2645717700       19.6263618700       18.3378224600
  H        18.2066443800       16.9924775000       20.9562404400
  O        18.5990905000       17.3460940900       20.1366112000
  O        20.1995682000       20.8576674800       18.6993631900
  O        23.0058410500       18.1163983800       17.8720853800
  O        18.2654110500       21.6543045600       21.5756639900
  O        21.3509565500       17.2248529500       19.7256988800
  O        22.6707292600       20.0792884300       21.5525350200
  O        19.9548279900       19.1988133700       21.9229966400
  O        17.5643021600       19.7275937800       19.7660906300
  O        23.1305126200       20.4638880200       18.8533745700
      27
 i =        1, time =        0.000, E =      -154.9461737685
  H        17.6091229100       17.8197556200       19.8891533700
  H        20.6924119100       21.4968890100       19.1591469100
  H        19.7535769300       20.3237587800       18.8838723200
  H        23.6847089200       17.7506481100       19.1922305300
  H        22.4443733800       17.3830338300       18.3960052200
  H        20.1196932400       20.2202129800       21.8512775600
  H        21.6429874800       19.9483602100       21.6859490000
  H        20.4064535700       15.9148400000       18.4919667900
  H        19.7691031200       16.9382768000       19.3775571300
  H        23.7091116900       20.9742617900       22.2567331500
  H        23.2679556900       21.2868900700       20.7299375300
  H        19.6944795400       18.0440952300       21.4011115500
  H        19.3844257600       16.4985898400       21.7136563300
  H        18.7433576200       21.5344183100       20.6476186700
  H        17.8847361100       20.3936111300       21.2291111300
  H        22.7209364500       20.0330639900       18.9745627200
  H        23.3519643500       21.1400057000       18.0409790500
  H        16.6794280600       18.4492398900       18.7432040900
  O        17.4139098400       18.6035218400       19.3427694200
  O        19.7359384800       21.2855933600       18.9475237000
  O        23.1912696700       18.0551213100       18.4435406000
  O        20.7426378900       19.4713025900       21.8161472400
  O        20.2851602000       16.8524650400       18.4856734500
  O        22.9912375200       20.9121822800       21.5794186200
  O        19.1648346500       17.2216416000       21.0862331600
  O        18.2330283200       21.3194731400       21.4528283800
  O        22.9127307300       21.0330395100       18.9218977700
      27
 i =        1, time =        0.000, E =      -154.9419672860
  H        17.5131940700       19.3173494300       19.6218525200
  H        19.7196488700       21.0528987200       18.5691645700
  H        20.1425294000       19.7536117500       17.9455697000
  H        24.4252745300       16.9744386200       17.4398974700
  H        23.0490067700       17.6498622400       17.6630133000
  H        18.8646551200       20.7870724100       23.3989218000
  H        20.1730097200       20.5582077000       22.6056161300
  H        19.9253209000       17.5173558000       18.2091793000
  H        20.6631870600       17.5255278600       19.4608732500
  H        21.7675584700       20.4657858000       21.4787987100
  H        22.3285957400       20.5064017400       22.9665059600
  H        19.9354056600       17.7751293100       22.1571170700
  H        21.4062892400       17.4655122400       21.9771483800
  H        17.8920462300       21.8681262400       19.6204417900
  H        18.6063927500       21.3937927300       21.0320046600
  H        21.6155388900       20.5541572400       19.0093663700
  H        22.8470608400       19.7319335400       19.4240945100
  H        17.6321596800       17.9027331900       20.3029409000
  O        17.3933011300       18.3837797400       19.4730801000
  O        20.3747538100       20.7287568800       17.8895271600
  O        24.0108835300       17.8669896800       17.6764530000
  O        19.3177247600       21.0539111700       22.5567725300
  O        20.8418349600       17.6715240200       18.5159053000
  O        21.6774622600       20.0538555800       22.3405039700
  O        20.5059893700       17.2311538900       21.6212890800
  O        18.4339949100       21.1415514200       20.0664426500
  O        22.3070876000       20.4558613300       19.7962885300
      27
 i =        1, time =        0.000, E =      -154.9312959565
  H        18.0969564200       18.3772084700       18.9648312400
  H        19.6928953900       19.6080064100       18.0985870000
  H        19.9233135100       20.9425230600       18.8482238000
  H        22.3174037800       17.7730629700       19.3917574500
  H        23.4372700300       16.7269180400       19.8437636500
  H        19.5193939800       20.5823236500       22.9096138000
  H        18.1277533500       20.2351761000       23.6791737700
  H        19.0114454900       18.0332211700       21.3637262200
  H        20.3320174300       17.3424714800       21.5768111100
  H        23.4181575300       21.1383138200       19.7318093200
  H        23.5277104000       19.5583712800       19.9519027800
  H        21.6390759100       19.2222765100       22.5948021300
  H        22.0701939400       20.2056927700       21.5000445500
  H        17.3980250500       20.7953168900       20.2182240900
  H        18.0511630700       19.9491720300       21.2957848400
  H        21.6151500200       20.7088317100       17.4353524100
  H        22.5127005200       21.3449824100       16.2011394400
  H        18.7252029000       17.1208417300       18.4636888600
  O        18.5191347500       18.0588543900       18.1412576100
  O        20.2394179400       20.4073357600       18.1243572000
  O        23.1633478600       17.6446950800       19.8606095500
  O        18.6501042100       20.1398751800       22.8591160100
  O        19.4197003800       17.1503555600       21.2112969400
  O        23.1997949000       20.4122375000       20.3762002200
  O        21.2650196600       19.8999615900       21.9970006300
  O        17.7970640100       19.9135390600       20.2893388100
  O        22.5521808700       20.9060428900       17.1283245400
      27
 i =        1, time =        0.000, E =      -154.9443941591
  H        18.0139333400       18.3146260600       19.9260071100
  H        19.4522036400       18.8156870400       17.3653807400
  H        20.7965568000       19.0735696800       17.8593796200
  H        22.6400854300       17.0932797200       18.5186924300
  H        21.6385716900       17.9232653200       19.5401708200
  H        18.1179011600       21.4359820100       22.6506838600
  H        19.5237995100       20.7754518400       22.5039897300
  H        19.6141849900       17.3799115600       20.5990996900
  H        20.6546860500       18.1644036500       21.4920675400
  H        22.8579981700       21.1545998600       20.3947918700
  H        22.4915464400       19.7716685200       19.9922815500
  H        21.5890303900       21.1901136800       23.5653998200
  H        21.7553343800       20.6513071200       22.0966492400
  H        18.9940142300       20.0899667500       19.3055893400
  H        18.3357348300       20.3220832400       20.7173164200
  H        23.2672694000       19.3706442600       17.8123591700
  H        24.5938408300       20.2011928200       17.8104568300
  H        17.4140641800       16.8899485400       20.3433110100
  O        18.0956837300       17.3301350600       19.8224745000
  O        20.0182446300       19.5816551700       17.4472789600
  O        22.3640108300       18.0077346700       18.7779237700
  O        18.5130824600       20.5633885300       22.3845199300
  O        20.6616765800       17.6996636500       20.6626788700
  O        22.1268641200       20.5430040000       20.5058158000
  O        21.1399990300       20.6197028800       22.9674573400
  O        18.1044406400       19.9613476500       19.7725882200
  O        23.6346529800       20.2922310700       17.6200258800
      27
 i =        1, time =        0.000, E =      -154.9523320231
  H        16.8635192500       17.7667024300       17.3064191200
  H        20.3687490100       19.5461334900       19.3896629400
  H        21.4475302300       20.6923791800       19.5681206600
  H        22.7351270900       17.1777885400       20.2275931500
  H        22.0751897100       17.7212650600       18.8504696900
  H        18.0139176600       21.2775726000       21.3233808100
  H        18.9520588100       20.1998376900       22.0147671400
  H        19.0018380700       17.4501773600       18.6146914800
  H        19.7880629000       17.1148055100       19.8486211600
  H        23.5851059600       20.4044324800       21.1482596600
  H        23.0562516900       21.6982327700       21.7439361500
  H        20.6109149200       19.3678407200       23.2549559400
  H        21.5390996300       20.0075801300       22.2519379900
  H        18.8282556100       20.5315538900       18.7977980400
  H        17.7479507300       20.1677582400       19.7110775800
  H        23.6500256500       19.2478637300       19.3293461000
  H        24.9700498500       19.9934825600       19.4811877200
  H        17.7881980600       18.6969545400       18.1262262400
  O        17.6164210400       17.7341664300       17.9144232800
  O        20.5106657500       20.5682894000       19.3963613900
  O        22.9300080600       17.5792900900       19.3790257800
  O        18.0154716700       20.3606383600       21.7322565900
  O        19.8441302600       17.6743214400       19.0752678000
  O        23.1415324100       20.7544609900       22.0271504100
  O        20.7442750000       19.4081893400       22.3068124300
  O        17.8953364500       20.3372411100       18.7271466200
  O        24.0067386600       20.1542502200       19.4971509500
      27
 i =        1, time =        0.000, E =      -154.9664367881
  H        18.7274125300       18.9227256900       17.6202629400
  H        20.4944219400       19.0453036800       19.3524692600
  H        21.8393554800       18.3739112000       19.6591780900
  H        22.3075941100       15.7354677800       19.9326409600
  H        21.8391070500       16.3311483400       18.5604470900
  H        17.9881302300       22.0223999300       21.0154597900
  H        19.1247660000       21.0656550100       21.7791877800
  H        20.0001919000       17.1665659900       18.0068490300
  H        19.6476540900       15.7222125100       18.0986383100
  H        22.2304726500       23.3805412400       21.4783241700
  H        22.9330228200       22.1419901600       20.7762519400
  H        20.8143247400       19.7767621400       21.6849701500
  H        21.1510035300       21.1947286100       21.9258894800
  H        16.8559776300       18.4577354400       20.6510577000
  H        17.4357178000       19.9207212300       20.5743114900
  H        22.9419514500       20.3460828900       19.9166000500
  H        23.4687823500       20.9933873900       18.6151810400
  H        18.2286496300       18.5465693600       19.1074504200
  O        19.0577357300       18.4917563500       18.4311960900
  O        21.2920773300       19.1163530500       19.9042771100
  O        22.4375872900       16.5341060000       19.3329918800
  O        18.1594320600       21.1158020100       21.3887007000
  O        20.3648082700       16.2663945400       17.7088338000
  O        22.3611876100       22.3968955100       21.5835814900
  O        20.5021201100       20.5274350900       22.2049048700
  O        17.1525870800       19.1069521100       20.0654145700
  O        23.5656340200       21.0100149000       19.5764002600
      27
 i =        1, time =        0.000, E =      -154.9428459069
  H        17.7422591800       17.0214263600       18.3941793800
  H        19.9709915900       21.0000039900       18.2606379600
  H        21.1061433600       21.8688824900       17.5495993800
  H        23.1385978200       17.0745021700       19.1957952600
  H        24.1912354800       17.7211701800       18.2925649600
  H        17.8756826100       20.5798658900       21.8788738800
  H        17.7331046700       22.0157426300       21.8308477300
  H        21.5335040700       17.9908536200       20.2901552700
  H        21.0922644200       18.3059776500       18.8152604800
  H        22.8036741200       19.5473217100       21.0037330900
  H        22.8518785900       18.6401001600       22.2718620000
  H        19.1421400500       18.6684074200       22.7680482500
  H        20.2477210500       19.2672439600       22.0726949700
  H        18.0926358100       19.6400020400       18.7718923800
  H        17.7658662800       20.6261584600       19.8657681400
  H        22.3836544300       20.9320249000       19.2935106300
  H        23.6708108200       20.1234407200       19.0318432400
  H        19.0210666900       17.1782228300       19.4201888600
  O        18.2166836600       17.6458779300       19.0108168000
  O        20.9281290000       21.0774241600       18.2042576200
  O        24.1505418200       17.2558842500       19.1520604600
  O        17.1830233300       21.2405778700       21.7281330500
  O        21.2311585400       17.5672514800       19.4810455200
  O        22.2129447100       18.9467692200       21.6056606900
  O        19.3720886600       19.5463217400       22.4462194300
  O        18.1523254300       20.6047362600       18.8910497400
  O        23.2991793700       20.7402517200       19.6611624600
      27
 i =        1, time =        0.000, E =      -154.9464270731
  H        17.1859404700       19.2330364500       18.9627843700
  H        20.7398013200       21.5537354200       19.0743103400
  H        20.6855416400       20.0477348300       18.7728742300
  H        22.9832242300       16.2757296700       18.9710663600
  H        22.1830722900       17.5993440000       19.2813365300
  H        18.6274968800       20.3310633300       22.0874471300
  H        20.0791498700       20.3283794400       21.5786791900
  H        19.4638692500       18.4073147900       18.8681414400
  H        20.2563566400       17.9929047000       20.1197023800
  H        23.2201045900       19.8510046100       20.8727478500
  H        23.3104197400       20.5070681800       22.3206343900
  H        21.2348233800       17.4361144700       22.3723357200
  H        21.3997638300       18.8107819600       21.8442082200
  H        17.2675130500       21.3850484700       20.2562541900
  H        16.2970321000       20.5797354300       21.2462999300
  H        22.6876022000       20.4859704100       18.8079639100
  H        23.6080535500       19.2769578500       18.6802649200
  H        17.4046723000       18.7417451500       17.4776503300
  O        17.6170112700       18.5026082900       18.4157480500
  O        20.9727298900       20.8940616300       18.3458233400
  O        23.0851367500       17.1771206200       19.2456453900
  O        19.2858705800       20.9423649800       21.6656524300
  O        20.3490452800       18.2288859600       19.1765052200
  O        22.7569635100       19.9783494100       21.7539093100
  O        20.7112088700       18.1560128800       21.8665224700
  O        16.5776787800       20.6042771400       20.3393209700
  O        23.4993503600       20.1009449300       19.2082719600
      27
 i =        1, time =        0.000, E =      -154.9476256728
  H        17.8039786000       18.3910618300       18.8024523500
  H        19.9939905900       21.4066517900       17.9522051000
  H        19.8280379500       21.5013138300       19.5292149300
  H        21.3142254100       17.3538120900       18.3293212700
  H        22.0123880500       17.4948243600       17.0122343600
  H        19.7340534600       19.5241665000       22.7245771700
  H        19.3102842800       20.4674952700       23.8729822800
  H        19.6997780900       18.9293848900       18.9998129400
  H        19.7154284300       17.7266557400       20.1028223100
  H        23.3572306200       19.5294917800       20.2278836100
  H        22.0635162800       20.5271519800       19.8317824300
  H        21.2906792000       17.8246255300       22.0719685400
  H        21.5628699900       19.1534821700       21.3082769100
  H        19.6176774900       22.5536481200       21.5864765600
  H        18.8795417000       21.1737876600       21.8551647900
  H        25.0130774300       18.6503389000       18.6755417100
  H        23.6183403700       17.9722314700       18.3685543800
  H        17.6541309500       19.4374728600       19.9571338100
  O        17.1751600300       18.9302720300       19.3119645900
  O        20.0398287600       20.8827078300       18.7398583900
  O        22.2116846000       17.2464740500       17.9241013700
  O        19.0173535300       20.1308546100       22.9809013900
  O        19.7095611600       17.9176118000       19.1501951000
  O        22.5622786400       20.0954566400       20.5888105400
  O        20.8253474300       18.6029430400       21.7572768200
  O        18.9964794600       21.8910992600       21.1262143300
  O        24.0756947500       18.8384461100       18.4624147300
      27
 i =        1, time =        0.000, E =      -154.9656076061
  H        18.2872304000       17.8007004900       18.7972622600
  H        22.0854241200       19.4270381100       17.7821123900
  H        20.7690306800       18.9012737800       17.2181721600
  H        23.9560180400       18.6245394500       19.4571526500
  H        22.5325434500       17.9414992300       19.5979064000
  H        18.2595240500       20.8296155000       22.8414884400
  H        19.6875278200       20.4085057300       22.5350259100
  H        20.3909035500       17.4031889100       19.7890657800
  H        21.1905139200       17.3615812300       21.1242263000
  H        20.8394493100       20.8405128900       20.5011064900
  H        21.7727898400       21.4476949400       21.5208854800
  H        21.6529088200       19.1415851100       22.3113727600
  H        22.0397073100       18.3401318100       23.6287074900
  H        18.4031025500       21.1232359300       19.4489985600
  H        18.1908642400       20.2521069500       20.7032580300
  H        20.6765559100       20.9167372400       17.9599322800
  H        20.9660686000       22.3151232300       18.7694176300
  H        18.8291799400       19.1094638800       18.8660070700
  O        19.1308736500       18.2594857900       18.5762450000
  O        21.3580543300       19.7450136900       17.1838299300
  O        23.1432688800       18.4506881100       18.9470376100
  O        18.7585960800       20.0965068700       22.4609142800
  O        21.2291653500       17.0310463000       20.1801913000
  O        21.2241685000       20.6770762600       21.3873007400
  O        21.6781923900       18.2151230900       22.6994429800
  O        17.8629498400       20.3794379500       19.7798854700
  O        20.3503398000       21.5197601500       18.7233308400
      27
 i =        1, time =        0.000, E =      -154.9616694250
  H        16.7580421000       17.6543899700       20.2923102900
  H        19.7607461800       20.6737853400       17.9987473200
  H        19.9913304100       20.8422322900       19.5189796700
  H        21.6016337700       17.2461600700       17.6810676000
  H        22.4825258800       17.3383342700       16.4095727200
  H        19.9612697400       20.7268607900       21.8846569800
  H        20.0430859100       22.2701561900       22.3811945200
  H        19.4317381000       17.4983374200       19.6537408100
  H        20.4959622700       18.3936199800       19.2377626800
  H        23.1159489500       19.2373750400       20.8443410700
  H        23.9493289400       19.9506192800       21.9057409000
  H        20.4070891300       18.5190650200       21.4196043800
  H        21.5213650100       19.1969595100       22.2197395300
  H        17.5203279700       21.7729145700       19.4407132800
  H        18.0121565200       21.3160507700       20.8762656300
  H        22.2366858100       20.3530825000       18.7105720600
  H        23.0606654600       19.0628138000       18.5831669700
  H        17.2675944400       19.0665726500       19.8432299900
  O        17.5405661200       18.1341612300       19.8768881900
  O        20.2909357800       20.2881559700       18.7185569000
  O        22.5086993400       17.5146891900       17.3691133400
  O        19.6987478200       21.6901421500       21.6395941800
  O        20.4131347100       17.4718353600       19.6236532500
  O        23.3522255100       19.1375942600       21.7771923600
  O        20.5227369900       19.2785176900       22.0358194300
  O        17.5631188600       21.0362022700       20.0592716000
  O        23.0289014500       19.8899521500       19.0869980400
      27
 i =        1, time =        0.000, E =      -154.9425308923
  H        17.7152802900       17.5933864300       18.2139949300
  H        19.0070415600       20.3227678400       19.9290862200
  H        20.2884193400       19.4816666500       19.4257225500
  H        23.4842958600       18.4326892400       19.3972914000
  H        22.8389332700       18.1030546100       17.9799820100
  H        19.2621621900       21.8933985400       21.7558569300
  H        18.5973272100       22.8844785300       22.6823213700
  H        19.6596647000       17.3293719800       18.7231409100
  H        21.0545855100       17.5718313100       19.5113104800
  H        21.1792501100       19.9666335100       21.2567826400
  H        22.5724254700       20.2796974200       21.1457034300
  H        22.2763476600       16.7733676100       21.4713674500
  H        22.3322124600       18.2624052700       21.1907427500
  H        17.0433062200       20.9543827400       20.8459171700
  H        16.9243649100       19.5102440100       20.4635611000
  H        21.5785952800       21.4740001500       19.5402475100
  H        22.8043541000       20.7220285000       18.9398453800
  H        17.4327525300       16.0672421900       17.9982368400
  O        18.0993081300       16.7182067400       18.4162630300
  O        20.0174362100       20.3350337900       19.9124463100
  O        23.5384700000       18.6621851500       18.4690368500
  O        18.4956007900       22.0209194600       22.2465181700
  O        20.3654574900       18.0110070300       18.9043701300
  O        22.0302650500       19.7440005600       21.7407014600
  O        22.5354191900       17.3931705500       20.7269630700
  O        17.3678260700       20.3122571200       20.1133698900
  O        22.5679590400       21.4647746400       19.5585208000
      27
 i =        1, time =        0.000, E =      -154.9422465781
  H        16.9678630400       18.5782120600       20.1493306100
  H        19.7437974900       19.2906946100       17.2192960000
  H        20.4900623000       18.7817865000       18.4738010500
  H        23.3966689900       17.8526721900       18.3343609200
  H        22.1869728300       16.9356651500       18.2356174000
  H        20.2450625600       22.6827367500       22.6439285700
  H        20.1215305500       21.0522264800       22.7904868000
  H        19.6046601600       16.0675424400       19.3226575300
  H        18.7811673100       17.4275236800       19.3122857100
  H        22.3441359100       19.9581255400       19.9934299100
  H        22.5012041600       18.4653492900       20.4849700800