      18
 i =        1, time =        0.000, E =      -103.2929902657
  H        23.4834382800       17.1769986800       21.8850187400
  H        22.1770991900       19.0961690300       22.3842667800
  H        22.3837114600       20.6541515400       22.8231134900
  H        21.7379625000       19.6930553600       19.8340225600
  H        21.5266334100       20.8720648000       18.8522983000
  H        19.0009073700       19.5980415400       21.0227816800
  H        18.3648690900       19.2948261500       19.5668228100
  H        20.9968898200       17.2195741700       18.7802290800
  H        20.0964651100       18.0042014500       19.8073243600
  H        19.9599371900       20.0145786900       22.6180036600
  H        18.5401080400       19.9163952600       23.0940735200
  H        22.3776589600       17.3348943400       20.8014222800
  O        22.7306062200       17.8054898800       21.6074784400
  O        21.7875727900       19.8880912000       22.9208440100
  O        22.2382359800       20.4554568300       19.3986372500
  O        18.8885804100       18.8859627000       20.2689878300
  O        21.0681555900       17.7688796000       19.5646541400
  O        19.0383179000       20.3729993500       22.3878110000
      18
 i =        1, time =        0.000, E =      -103.2890487449
  H        19.8973435700       17.8277599600       20.0955004300
  H        20.3099330100       19.7494932300       24.0813908000
  H        21.5637454400       19.8531074700       23.1734737000
  H        22.3131289200       21.0411529200       20.6943900800
  H        22.6342281600       19.6591864200       20.9433888900
  H        19.3990976300       19.9581286400       19.4057456800
  H        19.4731312900       19.4813582100       17.8924467800
  H        23.5584352800       17.5683472900       19.9120363100
  H        22.1245790100       17.6009046000       20.5341771200
  H        19.7739784900       21.3739529000       21.3417266800
  H        19.3129374100       20.1577355600       22.0524334800
  H        20.0194383200       17.4273094800       21.5735095200
  O        20.3433092000       17.1893021000       20.6811609900
  O        20.7833496300       19.2737173900       23.3420267500
  O        22.5486400100       20.5096989200       21.4283888200
  O        19.9797625900       19.4795325400       18.7414023500
  O        23.0353116000       17.9305454600       20.6883660500
  O        19.0778362500       20.6161924300       21.2525237500
      18
 i =        1, time =        0.000, E =      -103.2851005058
  H        20.9174078900       18.2177538700       22.4894227500
  H        19.2167703700       19.9077753700       22.2860878700
  H        20.5975915200       20.1201041500       22.8909678400
  H        23.0273348700       21.3867918200       19.3644259400
  H        22.1395677900       20.2180451100       19.4890022500
  H        19.4026006800       15.7213968000       20.4883437700
  H        19.3327924900       17.1564841500       19.9529788300
  H        21.9848565700       17.4701475400       19.2594250100
  H        21.9340071100       18.1260956900       20.6184059600
  H        21.6955928300       21.9192845900       21.0906966000
  H        20.6825335500       22.9496062800       21.8809014200
  H        22.1599070400       17.6918161500       23.1516251900
  O        21.7356903800       17.6512963500       22.2753834200
  O        19.8014312200       19.4559686700       22.9397191200
  O        22.0762185300       21.2269514000       19.5092179800
  O        18.9730745300       16.3025424100       19.7881306400
  O        21.9428187100       18.3788078300       19.6666102600
  O        21.0681731100       22.0346529400       21.8752923000
      18
 i =        1, time =        0.000, E =      -103.2879616954
  H        22.1430968400       16.5467824400       21.4174969000
  H        20.9572588000       19.0941902500       23.8588418700
  H        21.3837174500       19.6486950600       22.5607834300
  H        20.5493991300       20.3235947300       20.5733825700
  H        20.0592602400       21.3052702500       21.7015595600
  H        20.5844019700       20.1361333600       18.2707227100
  H        21.6079574400       19.0570260000       18.8206362600
  H        23.5443219800       19.2805724100       19.9998885900
  H        22.4415611400       18.1152285100       20.2076257000
  H        17.8051254400       19.6444690300       22.7667172600
  H        18.4038590000       19.3129108000       21.3133153400
  H        21.7682181700       17.8141237300       22.2946806100
  O        21.6039880400       17.3392458300       21.4024522000
  O        21.6575750200       19.0108395300       23.2242648800
  O        20.8664213600       20.8723753300       21.3612212200
  O        20.6167815400       19.2521841100       18.6833354800
  O        22.9898471500       18.5904090600       19.4797494800
  O        17.9788961000       20.0233653100       21.8514550500
      18
 i =        1, time =        0.000, E =      -103.3018327902
  H        22.1142029700       17.8690719900       19.6496559800
  H        22.5894800300       18.6684243300       22.3885808500
  H        22.0495717500       20.1201578100       22.3192882900
  H        20.9982487900       20.9682440000       20.1843479800
  H        20.8499770600       22.3287557600       20.9438098100
  H        18.5235683200       17.5253466100       20.4904312300
  H        19.2865871000       18.7399942200       21.0663021500
  H        20.9077092500       19.6139068000       18.0563784800
  H        20.2041357500       18.8825696000       19.3341088400
  H        20.5414452100       18.9786418600       22.9398109800
  H        19.4635297500       20.0135426900       22.4541373300
  H        23.4640430700       17.9402000100       20.2026690000
  O        22.6909349000       17.3970381000       20.3100373200
  O        22.2554094200       19.3831705700       22.9339801000
  O        21.1279474000       21.4078897200       21.0855343800
  O        18.9810901700       18.3247242700       20.1784113500
  O        21.0729497100       19.4026630900       18.9948073700
  O        19.6012863600       19.0866268900       22.7363587400
      18
 i =        1, time =        0.000, E =      -103.2775215955
  H        20.9881008100       17.6272269000       22.8110084600
  H        21.4399838900       18.7439371200       25.2223144300
  H        22.6514672600       18.2414178300       24.5747866700
  H        23.1658256000       21.8762377200       20.4471812700
  H        22.8249665900       20.3624183400       20.6598257600
  H        17.4695548000       19.3947656000       18.1896821800
  H        18.7821879600       19.8503695300       18.7901232000
  H        22.0734089700       18.1412556200       20.5522104900
  H        21.3214271700       18.8157495200       19.4104464800
  H        20.1812720100       20.7265345800       21.1361261700
  H        19.8576038500       19.2624910700       21.1029628700
  H        19.8683423100       17.0383585400       21.6880791700
  O        20.7691141400       17.4104312800       21.7895184600
  O        21.7045058500       18.3722589700       24.3722974700
  O        23.1476411600       21.1958499000       21.1510295800
  O        18.4112829300       19.2544020300       18.0828049700
  O        22.2124508100       18.7345043900       19.7744198600
  O        19.5078310500       20.1334621300       20.7820617600
      18
 i =        1, time =        0.000, E =      -103.2945106031
  H        20.2427073600       16.9221172500       21.2932928700
  H        20.8352158800       18.2844792800       23.8189674500
  H        19.8334999500       18.9619427800       22.7774188100
  H        22.5343871100       19.7780674900       22.0994036400
  H        22.9385785100       19.3821982400       20.7694637700
  H        19.6710160200       20.5284069900       20.5596861100
  H        18.2115546900       20.1334248800       21.1575955600
  H        21.4890999500       17.8874605900       19.8535178600
  H        22.5674087600       18.1443738400       18.6950750100
  H        21.3494098500       22.0631849900       19.6537120700
  H        21.8373316100       20.8632366300       20.6090370000
  H        19.5911335900       18.1474712000       20.5992690200
  O        20.0802711700       17.3114735400       20.3993160000
  O        20.0880759500       18.1425238100       23.2043399100
  O        22.9417209100       20.1576123500       21.3386147900
  O        19.2109873500       19.8714405100       21.3045498500
  O        22.4296729800       18.1755531300       19.6511444500
  O        20.9720320000       21.3783184600       20.2241711500
      18
 i =        1, time =        0.000, E =      -103.3019112577
  H        20.0484558800       17.2652108700       22.5287091700
  H        20.7729539000       19.8556921700       22.4130351700
  H        19.2759498700       19.8763059900       22.2428561100
  H        23.8756224500       20.0684168200       21.7713396100
  H        22.7064769400       19.3114316200       21.1223958600
  H        20.1590976800       20.2121460600       19.4624347100
  H        20.4605999800       19.8384316400       18.0900981200
  H        21.3291175500       17.2953490200       20.8961604500
  H        21.2221339700       18.2103445100       19.6701064700
  H        21.5783956100       21.4963685600       20.9439413700
  H        20.3262203500       22.5824230500       20.8701413200
  H        19.3598284200       16.2130089900       21.7164487300
  O        20.2329103700       16.3733080300       22.1021803100
  O        19.9690533000       19.3213141700       22.6041678200
  O        23.0213048100       20.2331561400       21.3535896000
  O        20.0998427900       19.4215850700       18.8983931400
  O        21.7999534600       17.9856961000       20.4390334900
  O        20.5988444600       21.6307456500       20.7347750500
      18
 i =        1, time =        0.000, E =      -103.2885121845
  H        21.0921748300       17.5573910300       22.5654689600
  H        20.4566484300       19.4705906700       23.4153112100
  H        20.7401461000       18.8636708200       24.8623115900
  H        22.3223112400       19.8345426200       20.1961023100
  H        23.0038856900       21.2583939200       20.5543315800
  H        20.1601373400       20.0701607500       18.8993467500
  H        19.0600401600       19.8347246700       17.8717065300
  H        21.9325012900       17.9900373600       19.9774375500
  H        21.7906344900       18.0278990500       18.5120223600
  H        20.5358932900       20.7415776900       21.7948696400
  H        19.3395112300       19.8104475700       21.4260455000
  H        21.3804962300       16.1184330800       21.8428591000
  O        21.2727608800       17.1192766700       21.6542057500
  O        20.9119775400       18.7697034400       23.8877607600
  O        22.1537552100       20.8360497300       20.5282049400
  O        19.3501051100       19.5285076100       18.7441947800
  O        22.3476444700       18.4493371400       19.1991348500
  O        19.6415929900       20.4297183700       22.1066583700
      18
 i =        1, time =        0.000, E =      -103.2940247643
  H        20.7572219800       18.0375585700       22.1869486100
  H        21.3105487800       19.6602129900       23.4860815000
  H        21.3081695100       20.3039455800       22.0212012800
  H        22.6344819700       20.8148457300       20.3750748900
  H        22.7269258100       19.3319227700       20.5837684200
  H        19.5561621100       19.6483204400       20.1436611500
  H        19.5299056200       19.8062589000       18.6528074500
  H        22.0835689700       17.2407511000       20.1353571600
  H        21.7391817800       18.1804997700       19.0672532500
  H        17.4920678600       20.8451453200       21.8408285800
  H        18.9493075300       20.4017208200       22.1518384600
  H        20.7790428300       16.5363992500       22.1604460500
  O        21.3336044100       17.2978879100       21.9306925700
  O        20.7359527800       19.8935590000       22.7778149100
  O        22.8237801100       20.1461275500       21.0978909700
  O        20.1106569200       19.3847777200       19.3656506900
  O        22.5134420300       17.7994356600       19.4669486100
  O        18.3461226900       20.5333283900       21.4252486300
      18
 i =        1, time =        0.000, E =      -103.2915244086
  H        20.4624454100       16.3527380600       20.7440230500
  H        20.5978976000       20.6159256700       22.2681123900
  H        20.8670053900       19.1075066200       22.5252695400
  H        23.5017620800       20.6977724900       19.7865316200
  H        23.1374017600       20.0800534200       21.0272001300
  H        19.6375296600       19.5718238500       19.6183791600
  H        21.1967216200       19.6676238600       19.8996990000
  H        23.9965695700       17.8266496500       22.5140110600
  H        22.6718514100       17.7710469400       21.7778445000
  H        17.8656523300       20.7051661600       21.0914346000
  H        18.5963827800       19.5747661100       21.6766536400
  H        20.6068035800       17.8397014900       20.1663638700
  O        21.0558331300       17.1541345400       20.7544461000
  O        20.1173531400       19.7725727500       22.5640613000
  O        22.7033823100       20.6335418900       20.3570883700
  O        20.4973546000       19.3948018000       19.1931136000
  O        23.2361282700       18.3849966200       22.2311473100
  O        17.9843900300       19.7778714000       20.9461024200
      18
 i =        1, time =        0.000, E =      -103.2675319617
  H        21.9516853700       15.0465569200       21.4395050300
  H        20.9618261800       19.1979682000       23.9061954700
  H        21.6738221800       19.8476010900       22.6020539500
  H        23.3841641600       21.2653414900       21.4649674400
  H        22.5109560100       20.4824958400       20.4859893900
  H        20.0340629900       17.0175821600       20.2877485400
  H        20.7391467700       17.1700850100       18.9786315800
  H        21.4781888600       20.6718562700       18.0423150700
  H        20.7717680400       19.5079486200       18.7524234600
  H        19.7858004700       21.1639473800       21.9492325400
  H        19.6512272900       22.6208822000       22.1526063100
  H        21.7557619800       16.3831141900       22.2019776000
  O        21.3034388200       15.7531641800       21.6732739100
  O        20.7477218600       19.6556952300       23.0642420300
  O        22.8179427400       20.4634971800       21.4550334200
  O        19.8238081200       17.3105584500       19.3863774900
  O        21.6098162700       19.9978744000       18.7968409700
  O        19.1934031400       21.9015572400       21.7226027800
      18
 i =        1, time =        0.000, E =      -103.2792386578
  H        21.0539527300       19.8716214200       23.3601894300
  H        22.1252750700       21.7986965800       21.6378504400
  H        22.8644768400       20.4712770100       21.5660289500
  H        22.7986168100       18.8922620800       19.6331710100
  H        21.8158449300       17.9976220000       20.6681355700
  H        19.5298313200       19.1209851500       19.5921259700
  H        18.3454757500       18.3690704100       18.8462662400
  H        20.5740996300       16.1224094600       21.1606069800
  H        20.0389699800       17.0650174300       20.0632548700
  H        21.2850704600       19.8448820500       20.6679978500
  H        20.6658527400       20.6871605800       19.5058613800
  H        20.3126237900       19.0432377200       22.4401387900
  O        20.1446575700       19.5028065700       23.2381685100
  O        22.6431539000       21.1885504700       22.1854702400
  O        22.5358171400       18.7254043100       20.5832086100
  O        19.3167950100       18.3713060000       19.0002985800
  O        20.6015204300       17.0467098000       20.9117243300
  O        20.4613640300       20.3163154800       20.3761998000
      18
 i =        1, time =        0.000, E =      -103.2944447961
  H        20.7736317700       17.7935615500       22.3151368900
  H        19.3284304800       19.4840952800       22.3841828100
  H        18.5621080000       18.4801858700       23.4159330500
  H        22.3434329000       21.2763129700       21.8976468900
  H        22.3841782300       20.5441174000       20.3967728500
  H        19.8834830300       18.8931281300       19.7477925500
  H        20.7283199300       17.6838219000       20.4583572200
  H        23.5292338500       18.4410296200       19.6763313200
  H        22.0069271200       18.7720738500       19.5466594200
  H        20.3412638200       20.9516664600       21.2467137000
  H        18.9935326000       20.9560362200       20.3890301600
  H        21.1572817300       16.3398094900       21.8039498400
  O        21.4189045500       17.2931047200       21.7578252900
  O        19.5004189100       18.7818204800       23.1645848000
  O        21.9469542700       21.2546507800       20.9989757600
  O        20.5261289300       18.1647169300       19.6351289700
  O        22.9606539400       19.1171130600       19.3004032300
  O        19.4370836900       20.5187947600       21.1775123300
      18
 i =        1, time =        0.000, E =      -103.2870939783
  H        21.8562760500       17.5115672300       22.9313582700
  H        20.1831288200       20.6928748400       23.0446641600
  H        20.5494245900       19.6468082300       21.9555187300
  H        20.7240751500       21.2802465100       20.1159178800
  H        22.0780918800       20.6556151100       20.3932177300
  H        20.0912452900       17.4013555700       20.5498467500
  H        19.8159362000       18.7502600000       19.8189718900
  H        23.3906383500       18.2979763800       20.5827643300
  H        22.2777371800       18.3801139600       19.4818466500
  H        17.6767972600       19.7269559000       19.9945455900
  H        18.7690161100       20.1652443700       21.0247969200
  H        23.2426653100       17.3477080500       23.5889514500
  O        22.7407390700       17.1110240200       22.7829931600
  O        19.8360776900       19.8399343300       22.6455187900
  O        21.4191006300       21.2793604000       20.7993956400
  O        20.2447529600       17.8712182700       19.7138606700
  O        22.9482317600       18.8926104400       20.0224761300
  O        18.5619776000       20.1208764200       20.0573398800
      18
 i =        1, time =        0.000, E =      -103.2895690789
  H        20.3435008500       16.3386873700       21.3423680500
  H        21.0349497700       20.4582699700       22.8123612700
  H        20.5313685800       18.9417050800       22.5444750000
  H        23.2358008200       19.7649009200       21.0700577500
  H        23.2842294700       21.1256747800       21.8378105400
  H        21.1000184200       20.0585816100       20.1870158400
  H        19.8351090700       19.5491491600       19.6324157800
  H        22.3807479300       18.7959075200       19.1867375500
  H        23.4832861000       17.8415075000       19.9689458500
  H        17.3013594000       19.0712927900       21.4109363500
  H        18.7633257100       19.5769982100       21.7220589500
  H        19.4250173600       17.6182459100       21.4658848400
  O        20.3291628600       17.2721075900       21.5239429200
  O        20.2148903000       19.9104227800       22.7221122200
  O        22.9253176100       20.2247392000       21.8861146400
  O        20.7100660900       19.9496031600       19.3336553000
  O        23.3315131400       18.6748141400       19.5444201900
  O        18.2359175000       19.1284355600       21.0303241500
      18
 i =        1, time =        0.000, E =      -103.2938203212
  H        20.9988372900       17.1799464600       21.5274365500
  H        21.5738711300       19.5231768500       22.3846185900
  H        21.0360796000       18.7195720700       23.5905270700
  H        23.4237756700       21.3015697800       21.0059803900
  H        22.6933415700       20.0591285100       20.4273642500
  H        18.4908410100       19.4449101800       20.1339844600
  H        18.9756379600       18.8662140900       21.3366410200
  H        22.3447552700       17.7984492600       20.1303205400
  H        22.4323259000       18.5010500600       18.7685933200
  H        20.8871678600       21.7567306000       21.1783522800
  H        19.9630980700       20.6777872800       21.8521700800
  H        20.0370212000       16.7852007100       20.4613428700
  O        20.9638822400       16.6590119000       20.7287834900
  O        20.7903480200       18.9815901600       22.6600239100
  O        22.5881503900       20.7760076400       21.0577179300
  O        18.5043793700       18.5749765000       20.5251531300
  O        22.8464673800       18.5262020100       19.6636119300
  O        19.9189352500       21.5495410500       21.4294559500
      18
 i =        1, time =        0.000, E =      -103.3039004783
  H        20.2415149800       17.7390445000       19.2935030100
  H        20.8724856200       19.0501616400       23.1272000000
  H        22.2124634500       18.6541590500       22.6295864400
  H        22.1257727800       21.5812989900       22.2066820700
  H        22.2670526600       20.6956469500       20.9888582500
  H        18.7834640000       18.6940890000       20.6157893400
  H        17.8732724500       17.4026645300       20.4059296200
  H        23.7554627500       19.1030982600       20.1156350200
  H        22.3515898900       18.7592180400       20.0306350500
  H        20.2823790400       20.5919319600       21.4050459000
  H        19.2885732600       20.4752739700       22.5082909200
  H        21.0482627100       18.1602650900       18.0149594200
  O        21.1455596400       17.7170049600       18.9111376300
  O        21.7299805500       18.7550685900       23.4962273800
  O        21.7092022900       21.4513699100       21.3546963100
  O        18.5688431700       17.9520550100       19.9819659600
  O        22.9659385600       19.2451404000       20.6561222500
  O        19.6031762600       19.9282229500       21.7562811400
      18
 i =        1, time =        0.000, E =      -103.2841344543
  H        19.3253162000       16.6454520400       22.5780582100
  H        20.7658364800       19.3248029400       24.0720749900
  H        21.6310094400       19.7493110500       22.7776631200
  H        24.0525381900       20.6854770000       21.6555716300
  H        23.1700790800       19.5144505400       21.1760445000
  H        20.0292570900       19.4183217100       17.3674821600
  H        19.4422417200       18.4112644100       18.4230357900
  H        23.1408494400       17.9900473400       19.0998318300
  H        21.8652948600       18.9187605700       19.0379386800
  H        19.2385551500       20.2871588700       21.9237974200
  H        19.0801560100       20.0372636200       20.5060678400
  H        20.2804388100       17.9006185000       22.4688870800
  O        19.9993441900       17.0462800800       22.0381175100
  O        20.7112882400       19.6733537400       23.1678087200
  O        23.3909552600       20.0538761300       21.9987219400
  O        20.1739516700       19.0582893700       18.3014466400
  O        22.7917806500       18.8620048100       19.4359494300
  O        18.5974622500       20.4825728500       21.2304941700
      18
 i =        1, time =        0.000, E =      -103.2959210186
  H        21.3564791700       16.0075815400       21.0173971600
  H        21.9682898300       19.1272162200       23.9574595100
  H        21.6468684800       18.0757055800       22.8674087000
  H        22.6237202400       21.9501916700       18.8028076000
  H        22.1128083300       20.5563389400       19.0533815900
  H        18.0401837100       17.7349874500       21.5966097300
  H        18.9003487000       19.0428991000       21.0415657700
  H        22.0870910600       18.5172106200       19.9360739100
  H        22.4095713100       19.4727388400       21.0853599000
  H        20.1993517000       20.1188492900       22.0688991800
  H        20.5847455600       20.7429571000       20.7259787300
  H        20.2366169400       17.0656150300       21.2708427600
  O        21.1960760600       16.7812312600       21.5758727800
  O        21.5138379400       19.0508541700       23.0554954200
  O        21.7641013400       21.4723751000       18.8901998900
  O        18.7616085600       18.0132277200       21.0137067900
  O        22.6661678400       19.3078366700       20.1813728200
  O        19.7538863000       20.5805040400       21.3086296200
      18
 i =        1, time =        0.000, E =      -103.2996781630
  H        21.0482858200       18.7395927800       21.5662345200
  H        21.2980055200       20.0073460300       23.3329342300
  H        21.5616930400       20.8552954100       21.9907095000
  H        22.9620453100       21.7896818500       20.0856854300
  H        23.0373146800       20.2301150600       20.2546700600
  H        18.7119165600       17.8869660300       20.9190222100
  H        18.0329849500       16.7160487400       20.3023436900
  H        22.8772787000       18.1962083300       20.0846861300
  H        23.5895110100       18.7881589600       18.8324514500
  H        19.3258159000       19.8711522400       21.7700224700
  H        18.2309577300       20.4377610700       20.7241722600
  H        20.4239433400       17.5315320000       20.8300374900
  O        21.2898758200       18.0074066800       20.9823939700
  O        20.8716156400       20.4847825800       22.5789702400
  O        22.7070858500       21.0970226000       20.7384676800
  O        18.7491362600       16.9379776600       20.8862639400
  O        23.5548914000       18.8960869600       19.8233178100
  O        18.5502555900       19.6165753400       21.1879157700
      18
 i =        1, time =        0.000, E =      -103.2983711079
  H        21.3351218000       17.8625105200       22.2634120800
  H        19.2032233800       18.8650199500       23.8120993000
  H        19.7406475700       19.6996576700       22.6769176700
  H        21.5587309900       21.2578885400       19.1128551500
  H        22.5686273300       20.6890938400       20.2427382900
  H        19.3225979300       18.6836240300       20.5078478100
  H        18.3738302200       17.8841927300       19.6136212700
  H        22.9476117700       18.2646494400       20.4977005200
  H        23.9447039600       18.8934017400       19.2784310000
  H        20.3628170800       20.7732233300       20.8468001800
  H        18.7899798600       21.1457801200       20.9342947300
  H        21.1810264100       17.2767134300       20.8976480300
  O        21.8794935100       17.3248602600       21.6288419500
  O        19.9969388000       18.9883448800       23.2594734000
  O        21.7668937800       21.2935874300       20.1088208300
  O        19.2788508300       17.9043172100       19.9547995800
  O        23.4899450100       19.0540044800       20.1387605800
  O        19.4223081500       20.4592451300       21.1071751400
      18
 i =        1, time =        0.000, E =      -103.2743464126
  H        20.8023498400       18.4868924700       22.8046094300
  H        20.7939859100       20.9055465700       23.6948065600
  H        22.0719886000       20.4429991700       23.0595859000
  H        23.8616304500       21.8006732400       21.1747509900
  H        23.2782610100       20.3278539700       20.7236329500
  H        19.5721968600       16.2080791500       18.9928913400
  H        20.1408434100       17.0830754900       20.0448941800
  H        21.8682885800       18.6565694600       20.5769358200
  H        21.9377072500       19.1495921300       19.0649060200
  H        17.7170316200       21.0317230300       20.0098290400
  H        18.6287491500       19.8041144700       19.9333830900
  H        21.4938881300       17.2250362900       22.6223612300
  O        20.8889925400       17.7602874700       22.1060209900
  O        21.1730014300       20.0751820100       23.3522665800
  O        23.4791571500       20.9682754600       21.5845117900
  O        19.9892183500       17.1117013200       19.0742420100
  O        22.4501926300       19.0505942700       19.9257171900
  O        17.6750626500       20.0692563100       20.0279570600
      18
 i =        1, time =        0.000, E =      -103.3009530784
  H        21.4579986400       17.9289524100       22.0538035700
  H        21.7638117300       18.6319566700       24.1937299400
  H        21.1053873200       19.6973816500       23.2644882400
  H        20.8016803900       22.4647802200       22.8818718400
  H        21.5319728700       21.7141696100       21.7548259200
  H        20.1218890100       17.0719144300       18.8093031100
  H        19.5134565200       18.0626957400       19.8519095200
  H        22.2480024300       19.1621754000       20.4070108500
  H        23.1281276700       20.3379466500       19.7646710400
  H        19.2524418200       20.4257910100       19.8152905200
  H        20.4998745100       20.1197472300       19.0763672600
  H        21.2471340000       17.1025593700       20.7422128100
  O        21.9237872700       17.6463211600       21.2309787300
  O        21.0977877900       18.7476023900       23.4813915900
  O        21.0333028100       21.5582856800       22.5612129700
  O        19.8298423000       17.1107458200       19.7683359700
  O        22.1967112600       20.0525223200       19.9600924100
  O        19.5423854100       19.8191445200       19.0741917200
      18
 i =        1, time =        0.000, E =      -103.3019165276
  H        22.3960529100       16.6417958700       20.3756854800
  H        20.6870797500       17.9602922400       22.5521659700