      42
 i =        1, time =        0.000, E =      -241.0488489628
  H        16.3752789300       15.0924630600       23.9545730700
  H        17.9032485900       17.6289807000       18.6030786800
  H        17.1790656500       16.4742663100       17.9240214200
  H        19.1706007100       18.4321462700       22.7084759900
  H        18.5274158700       18.9568841300       21.3687516400
  H        16.3542018900       22.0033633600       19.5046534300
  H        17.2634840500       21.0899885900       18.7113539600
  H        15.7483540600       16.8161340000       22.2242629400
  H        15.1052849600       18.2193145100       22.0099054400
  H        17.8829484800       21.1318502300       16.4401075200
  H        18.9865690400       20.4287386000       17.3167381800
  H        18.6144113700       21.0272504500       24.6885792200
  H        17.2576670900       21.1774165500       24.0072735300
  H        18.3514539300       19.0977746600       14.9657302900
  H        17.2908948600       19.2514238300       13.8492931300
  H        20.6659108900       18.7983940300       16.6691353600
  H        20.8340844700       19.2258785200       18.1010411700
  H        20.9666196300       21.8178649200       23.6433302200
  H        20.0277190900       20.5904002900       23.1021144600
  H        17.9046591800       19.0090031700       24.6690109300
  H        18.7458267500       17.7522000900       25.2656783500
  H        19.5043886200       16.8584785200       16.8009907300
  H        19.9354459900       17.2267120500       15.3302545400
  H        17.1291480000       19.7623641400       20.0078766800
  H        16.7398348400       18.1918296700       20.5553983100
  H        20.1585623500       18.0333141200       20.0891044900
  H        19.9698637500       17.0654004700       18.8948938500
  H        17.3984999100       16.2955529100       23.6554545700
  O        16.8686756600       15.5731330700       23.2155974800
  O        18.0319364000       16.9491517000       17.8817298500
  O        19.2882782200       19.0190742700       21.9555884800
  O        17.1745275100       21.5003557500       19.6481237600
  O        15.4111987500       17.4353745500       21.5196250400
  O        17.9919376800       20.6250040500       17.2321477100
  O        17.6205136400       20.7468743500       24.7996080300
  O        18.1826570100       18.9093766100       14.0218524900
  O        20.5655262800       19.6537983200       17.2327976300
  O        20.2551458500       21.2016798300       23.9142195900
  O        18.1547329600       18.0013485200       24.5233345600
  O        20.2988727000       17.1133320400       16.2242767800
  O        17.3976683400       18.7665013500       20.0324577200
  O        20.5735145300       17.7506270200       19.3031329500
      42
 i =        1, time =        0.000, E =      -241.0363601406
  H        16.0854037600       16.9237415700       18.2612011800
  H        19.7140027200       17.1924411900       18.7126917100
  H        18.8331194400       17.3838328100       17.4304536500
  H        20.8211032100       18.4774502200       23.3451598900
  H        20.0826841600       18.7708363900       22.0730327400
  H        17.2985853800       20.5878899600       19.7821051200
  H        17.0781020800       20.1191945500       21.2228196900
  H        16.4035495700       16.6349840600       21.0281235600
  H        17.5915205000       15.7079760700       20.9025730800
  H        18.6707641100       21.3090330000       18.4346929200
  H        18.1418267100       22.6324896500       18.1621676600
  H        17.1530677100       18.9171021200       23.7605301300
  H        18.5106049900       18.6561440000       24.0308506600
  H        17.3194267200       20.1118409900       16.8112899100
  H        18.4765120600       19.9836831800       15.8568257500
  H        19.7743301700       19.3800937500       17.9181263900
  H        20.7827192500       20.4387743200       18.5106241300
  H        17.9558126700       21.9573251900       22.8422635000
  H        18.7006346800       20.6625782700       23.1589929200
  H        17.9416169100       15.7743812000       23.1471808600
  H        18.5194684700       16.3015357100       24.3546803500
  H        16.6536061800       16.7248090800       15.5125697400
  H        16.8923530600       18.1719943200       15.9817466000
  H        18.7470007700       18.8264371400       20.4806664600
  H        18.7308397600       17.3772473900       21.1186410600
  H        20.9058359900       20.8134106200       20.7124521600
  H        22.3726987900       20.4837331600       20.5790642600
  H        16.0315468800       18.0626282900       19.3060331700
  O        15.7169362700       17.1134913100       19.1350594500
  O        19.7318323500       17.5666997400       17.8047384000
  O        20.4341134300       19.2768209900       22.8868409200
  O        17.0939952000       19.7597922400       20.3148004500
  O        17.2566448700       16.4486116300       21.4650073100
  O        17.8166964900       21.8820709800       18.6746165700
  O        17.6738228400       18.2108562000       24.2210304300
  O        17.5478668700       19.9724636200       15.8805374500
  O        19.9169943100       20.3476088700       17.8901348100
  O        17.8841561000       20.9954694700       22.7538162700
  O        18.7436279200       15.6081631700       23.6859316300
  O        16.7390312400       17.2560421400       16.2815015900
  O        19.3703800100       17.9778139500       20.5408173400
  O        21.6246416300       20.7712468800       20.0719476900
      42
 i =        1, time =        0.000, E =      -241.0426099369
  H        17.6094256500       14.3557201900       20.3264321900
  H        17.0960607600       17.5447240900       18.4610468600
  H        17.8393248600       17.0027748600       17.2319449200
  H        18.8749067300       17.8171617800       22.2443872800
  H        18.7165141900       17.1153250000       20.8796240300
  H        17.9370733500       21.2469419700       20.6696978500
  H        18.1011463300       19.8100378600       20.5149688400
  H        15.4966068700       16.5153556300       21.8786783500
  H        16.3909163700       17.1427215300       22.9034604900
  H        18.9722649600       22.0925923700       18.3305723600
  H        19.3410249600       20.5259975100       18.4991261800
  H        18.5136612400       20.5472591100       24.7005785400
  H        18.4769315900       19.9416659900       26.2126592300
  H        20.3963798900       20.9264666100       15.3309638300
  H        20.4162915900       19.8531700700       16.3977849600
  H        21.4827474100       19.6639288000       18.3070896300
  H        22.9752199300       20.0603867300       17.9377860100
  H        17.7438311900       21.0251718800       22.6392904300
  H        19.1293581500       21.4684454800       22.8748700500
  H        18.2274928800       18.1933465200       24.4694266300
  H        18.9211175700       16.7499942800       24.5505579100
  H        18.6681798300       18.6501786800       15.5319544200
  H        17.2335249700       18.5497585800       15.1379932900
  H        16.1064213400       19.2897533100       19.8932824900
  H        15.8587569500       17.8865531600       20.0917726500
  H        20.1449235800       18.3454943400       19.7665886800
  H        19.4775906800       17.9546904800       18.4925784900
  H        17.5311581500       15.6233026600       19.6290257400
  O        17.3662298900       15.3021814700       20.5190501100
  O        17.9464369000       17.1048999900       18.2236761000
  O        19.1918399600       17.8748906800       21.2744647200
  O        17.5457830600       20.4338418300       20.9868176800
  O        15.5894933100       17.3828366900       22.2992665300
  O        18.7002665600       21.2359606700       18.8119259800
  O        18.7763339300       19.7647635400       25.3192285200
  O        19.9045739500       20.1246478700       15.6432245300
  O        22.0305829400       20.1094281000       17.6169831700
  O        18.2354042100       21.5992376500       23.2422425700
  O        18.2240520400       17.2500020200       24.0201678900
  O        17.9863848100       17.9928475900       15.4593777200
  O        15.8437965700       18.5121834800       19.3443166400
  O        20.1156782200       18.6559734500       18.8166416000
      42
 i =        1, time =        0.000, E =      -241.0489193953
  H        17.1422066500       15.1053879400       19.4008641500
  H        19.0197932300       18.1468075100       16.9481690800
  H        20.2039325700       18.4036975500       17.9271589200
  H        19.1677166800       18.1775845200       21.8349648500
  H        18.5751091200       18.9015548300       20.4669878700
  H        17.3890436200       21.5653203500       22.3013508700
  H        16.0364558600       21.8719364100       21.7819584300
  H        16.6857998100       16.2876242300       21.4102632800
  H        17.1201046700       17.1147036500       22.7589142000
  H        17.5399213100       20.9163032700       17.9083106600
  H        16.6255868300       19.8417255700       18.5714181200
  H        19.9060252600       20.3893665500       24.1450763300
  H        19.6794541100       20.5408396200       25.6271235700
  H        16.9315250600       19.0364086200       14.8910618800
  H        16.9362439200       19.7456778700       16.3064275900
  H        19.6425105900       20.4549712500       16.1412688100
  H        20.4564852900       20.6901169300       17.3237992600
  H        20.5015632200       20.9767114100       22.3813485400
  H        19.4824075800       19.9392056300       22.1093464400
  H        19.2316807100       18.2803811000       24.2117428100
  H        19.6882984100       16.9590622600       23.5411754500
  H        18.0267677000       15.3121265100       17.2120224500
  H        18.6826548400       16.2901219200       18.1384738500
  H        16.7513551600       20.0099845000       20.8649507000
  H        16.6530229600       18.4663543900       20.9291725700
  H        20.6996553500       19.1508773100       19.6770773600
  H        21.7895502800       20.1522570700       19.2137323000
  H        17.0904381300       14.0049635900       20.3822744900
  O        16.6987761300       14.8671903200       20.2764786100
  O        19.7375767000       17.6927435600       17.3607241200
  O        19.4674099500       18.6421894900       20.9738359300
  O        16.4941038200       21.2084971900       22.3128356400
  O        16.4538990200       17.1102500300       21.9934637400
  O        16.7282658900       20.4180554600       17.7722127300
  O        20.0543166300       19.8831717200       24.9965488900
  O        17.5866823200       19.2975956900       15.6023026600
  O        19.9422322400       21.1853864600       16.6968128600
  O        19.5967075800       20.8337202000       22.5503318600
  O        18.8832586800       17.5859850800       23.6265001800
  O        18.0104207700       15.6146983100       18.1267868700
  O        16.8545771600       19.1935615000       20.2966002300
  O        20.9501127600       19.7581581900       18.9603030700
      42
 i =        1, time =        0.000, E =      -241.0248434696
  H        17.7310574300       16.8142819800       21.5336843400
  H        17.4666546700       17.8952910900       18.9663088000
  H        18.5461210200       16.8446626700       19.3793287200
  H        19.9920339800       20.0826767800       23.4291279800
  H        19.0074057900       19.2545931100       22.4497222700
  H        18.6129362100       21.3224937600       18.6536033200
  H        17.0891851700       20.9361160700       18.6914530900
  H        15.4247712000       17.4940765100       21.1237295300
  H        15.6307718100       17.1574730200       22.5297398300
  H        17.6121542600       19.6205760700       16.5150916200
  H        16.0752378300       19.4186940500       16.8168170400
  H        19.7025481800       18.0439993600       24.0323254900
  H        20.2940818700       16.6387600700       24.4592150200
  H        17.3446811300       17.8488135400       13.0702752200
  H        18.4924404100       16.9119946100       12.8397677800
  H        19.9562672300       20.4845141700       16.9150306900
  H        20.6259060800       20.8235330100       18.1845106100
  H        19.5030824600       22.3629831800       24.5202850700
  H        18.6447766300       21.4304947600       23.8120020400
  H        17.4205533300       16.4058468600       24.1472601200
  H        16.2897032300       15.9727470600       25.0762163200
  H        18.5349567300       17.8571552100       15.1457270100
  H        18.6286090000       17.7586552900       16.7481309900
  H        17.8819133200       20.4405407000       20.6492017200
  H        17.2113802000       19.5378219500       21.7357545500
  H        19.7126626400       18.7847588100       19.0236387900
  H        20.2339702700       19.5441060300       20.3303566300
  H        18.7468373900       15.6408618600       21.6654510700
  O        18.6440157300       16.4507550400       21.1812485000
  O        18.3062958900       17.5051660800       18.6232837300
  O        19.8902099400       19.2419355500       22.8520078700
  O        17.8387092600       21.2251763000       19.2848387200
  O        15.9567107000       17.8400523600       21.8865047500
  O        16.7758436200       20.1143300500       16.7421637700
  O        19.4575432000       17.1659387200       24.5120844300
  O        17.9694916800       17.3095491700       13.6086078000
  O        19.9903755800       21.2278800500       17.4905137000
  O        19.4070647300       21.4102657000       24.4083703100
  O        16.5168327100       16.0211743600       24.0942799400
  O        18.9650657800       18.2252209500       15.9619897800
  O        17.6884089600       20.3414034100       21.6353656400
  O        20.3820769600       19.4267925000       19.3881350000
      42
 i =        1, time =        0.000, E =      -241.0562783609
  H        19.0475411700       16.3940919900       19.1878698500
  H        17.1219248900       17.3844751000       19.1485982300
  H        17.4436311500       17.9464841900       17.5754757900
  H        20.2209108300       16.7470466600       20.9251642900
  H        21.5141089900       16.9338780900       21.8318415500
  H        16.0250675200       19.6798097200       21.9161406700
  H        16.4583531100       20.2445729600       20.5789583200
  H        17.0066371800       18.3151842500       23.9003522500
  H        18.0724134900       18.7521742400       22.8518212100
  H        18.3086041400       19.3282990600       19.0305844200
  H        18.9193898700       20.8749434800       18.8937915000
  H        20.0557450400       20.4052567100       25.2138838000
  H        19.2036365900       19.9933407500       23.9716964400
  H        18.3970397700       20.3256258100       14.2341920700
  H        18.7815323400       20.8406412000       15.5617570200
  H        21.6555310300       21.8227048100       17.3595017800
  H        20.8802894400       20.5267165400       17.3551074400
  H        19.9710796000       19.0255441900       22.0180443800
  H        19.0892070700       20.1366150700       21.2865361100
  H        18.1739368200       16.7206436600       25.5602662500
  H        18.4697515000       18.2010609100       25.4068455900
  H        15.8420726700       18.2494852200       15.9643377300
  H        17.1834393600       19.1229653600       15.8483997700
  H        16.6080221200       16.9331121400       21.3151023300
  H        15.9025061400       18.1424521600       20.7316668000
  H        20.5018826000       18.0364161000       16.5501181500
  H        19.4457863400       18.2344021300       17.7716442500
  H        19.2313319800       14.9035495100       19.8042764000
  O        19.6915334000       15.7578858700       19.5918873900
  O        17.8517182300       17.7630608600       18.5313392200
  O        20.5566961600       17.2332373100       21.7320074000
  O        15.6669462400       19.9646249000       21.0363734400
  O        17.1201305200       18.6444990600       22.9504564200
  O        18.4331291500       20.2380285800       19.5640480000
  O        19.1534795100       20.1712323200       24.9760359300
  O        17.9464050500       20.6893083500       15.0191499900
  O        20.7331898400       21.4635490400       17.2326144600
  O        19.4677352300       19.8584709400       22.1674257800
  O        17.6979746200       17.5450929600       25.4071148200
  O        16.8443602100       18.1931198800       15.9392379000
  O        16.1960498100       17.2454253600       20.4872449300
  O        19.9807923200       18.6818441800       17.0753970000
      42
 i =        1, time =        0.000, E =      -241.0425604496
  H        15.3907707300       14.6738041900       19.9613845900
  H        20.7787647600       17.5578361100       19.4930760100
  H        19.8355538500       17.3156991800       18.2087940200
  H        18.7560386700       17.4792177000       21.1963107500
  H        19.9968972900       17.0226776000       22.0605178700
  H        17.5934627000       19.2938721000       19.9777499200
  H        18.0583230800       20.5391063700       19.1557647900
  H        16.7267976900       20.2258413400       22.5181407700
  H        15.9468587900       19.0761263200       23.0122612600
  H        18.2308212400       21.8093640400       17.2977378500
  H        19.4064192000       20.7178583400       17.4499341600
  H        18.8149749200       20.0439072400       23.6066268300
  H        19.3923104500       18.9921744300       24.7028013600
  H        19.6971668200       18.5082471500       15.2701484300
  H        18.6808155800       19.7167289200       15.7449863800
  H        20.8656502300       19.2975023700       17.8992772000
  H        21.0738766600       20.6032002900       18.5904092300
  H        18.5220458000       20.8762591600       21.3071807900
  H        18.3939770400       22.0931719100       22.4338188900
  H        17.5834541200       17.9755297600       24.2264246400
  H        16.7664229800       16.8345220700       24.6700823900
  H        17.3163778600       16.5573037700       18.0011050400
  H        17.8731542000       17.5767275400       16.8376339700
  H        16.2717493300       17.1197143200       20.3769824800
  H        16.7127055400       18.5442147300       21.0872936300
  H        20.4317732500       19.1094406600       20.6875812600
  H        20.3741030400       20.5140052200       21.3909255000
  H        14.4049889200       15.8511285500       19.6047418600
  O        15.2859578200       15.4911716000       19.4232989500
  O        20.7937556900       17.5715494000       18.4779509200
  O        19.7383823000       17.5006431100       21.2556213200
  O        17.7753368700       20.2741089100       20.0505825600
  O        15.9914394000       19.6881510800       22.1676819300
  O        18.3815807800       20.8637049900       17.5684980700
  O        18.5909398000       19.4245770300       24.4099840300
  O        18.7652609900       18.7838980000       15.3451140900
  O        21.0614379900       20.2440020800       17.6476019700
  O        18.6541094200       21.1364682700       22.2940319300
  O        16.8168963100       17.4581033900       23.9115441100
  O        18.0554632400       17.0913684700       17.6756275800
  O        16.9690068600       17.7676901600       20.5594459300
  O        20.8156074100       20.0466039900       20.6098594900
      42
 i =        1, time =        0.000, E =      -241.0462308911
  H        18.3954374900       15.2293710100       20.8955033500
  H        18.4156661100       17.5068294700       19.4254470000
  H        18.3449673800       17.2640085000       17.8008192900
  H        20.4776939800       16.9602246400       21.9581548300
  H        19.4975319200       17.8850570000       21.3817947900
  H        17.6459479900       21.7054623800       19.7827325200
  H        18.9922945300       21.0699704300       19.0774323700
  H        16.7543077800       16.6831157400       22.2364437400
  H        15.4805611500       17.4161042100       22.6651252500
  H        16.2080377300       20.4403131500       16.4442016400
  H        17.3102258000       20.5566486700       17.7157506000
  H        19.4149020200       20.6555051700       23.3997248300
  H        18.3516144100       19.7504695600       22.8332963100
  H        14.1549168700       19.8457821600       14.4756991100
  H        14.5220141800       21.2900797600       14.1502378100
  H        21.3311662900       21.2592510400       18.6974803800
  H        20.9192681700       19.7576383900       19.2186377400
  H        21.0356808900       19.7086137100       22.3165188500
  H        21.2995622300       20.9792992200       21.6260372200
  H        17.7282125200       18.9232574800       24.6622650700
  H        17.8112931300       18.1680099300       25.9742883600
  H        17.6643262400       17.7385038100       15.4120092400
  H        17.0121991400       18.4195956900       16.6319695000
  H        18.1054386500       19.5451391300       20.2980863200
  H        17.2198087500       18.5959566100       21.2074363400
  H        21.1949997400       17.9166645200       19.8388998900
  H        20.2011364500       17.7716480700       18.6229769000
  H        18.4969663800       14.2549015700       22.1509594100
  O        18.3839552300       15.1600894400       21.9040810900
  O        18.8510728000       17.0712469600       18.6451831500
  O        20.4740270100       17.8067302500       21.5002445900
  O        17.9669781800       20.9974587200       19.1556662300
  O        16.0728267700       17.2927644900       21.8893538600
  O        16.4707211500       20.0717635900       17.3440077600
  O        18.6031372600       20.1639428000       23.7018213400
  O        14.9113964100       20.4716376900       14.4876466100
  O        20.6929262000       20.7894821300       19.3027370700
  O        21.0707876000       20.6417055100       22.4858440100
  O        17.4598953000       18.0868156200       25.0852127700
  O        17.4309263400       17.5553989900       16.3172110700
  O        18.1257911300       18.9901464100       21.0950258400
  O        21.1750680100       18.1564013400       18.8526257100
      42
 i =        1, time =        0.000, E =      -241.0337820685
  H        18.3358769600       15.2732533700       20.5324314200
  H        17.6129401400       18.3617421400       19.2505063700
  H        16.9680779600       17.8401830400       17.7084650600
  H        19.4812091900       18.4874431400       21.1067866600
  H        20.7805993600       18.1314759300       21.9010667300
  H        15.6873545600       21.2230791300       20.8499005100
  H        16.7415545400       21.2560493900       19.6187933100
  H        17.4092316700       17.7226077800       24.0927926800
  H        18.3948962000       16.8871112800       23.0959082900
  H        17.9206939300       21.6683710400       17.8943247200
  H        16.9742573600       20.3662422600       18.1586456100
  H        18.3823439600       19.8613482600       24.4102853700
  H        18.3339477900       19.1824608400       25.7977240500
  H        17.0512213900       20.0258363400       16.1297027400
  H        17.5385875100       20.0171742700       14.6978851200
  H        20.7755811400       21.7427572800       17.3329790800
  H        20.1564059400       20.3567294400       17.3881283300
  H        18.0252239000       21.3539090100       22.1464331000
  H        19.0486594000       20.2193320700       22.3997295700
  H        19.8213478100       17.8717738800       24.1278883000
  H        20.9193132900       16.6934352100       23.6629575100
  H        16.7209906800       16.0138214000       15.7508170800
  H        16.7013543900       17.6083483100       15.8712959900
  H        17.1275551900       19.3138889500       21.0935165800
  H        17.3941920700       17.9598561500       21.9860495700
  H        21.2970168000       18.4980968100       19.1926680200
  H        21.2219083600       17.8832044000       17.8003424900
  H        19.8205419100       15.8912422300       20.8076313400
  O        19.2855048000       15.0164148600       20.7217288500
  O        17.2003131300       18.6479461200       18.3559950900
  O        20.4602230300       18.4498070700       21.0087750300
  O        16.5983578600       21.0294371200       20.6071282100
  O        17.4319515300       17.0462216700       23.3225473100
  O        17.0108233200       21.3633861600       18.0661562600
  O        18.5591998500       18.9957659400       24.8638743200
  O        17.1381641800       19.3491366300       15.3579311300
  O        19.9185830400       21.2876438000       17.2451299300
  O        18.3550743300       20.7440814100       22.8690588300
  O        20.2577437200       17.3091612900       23.3265626100
  O        16.4980067500       16.7307719100       16.3728556100
  O        17.6505695300       18.4791692200       21.1245936200
  O        21.1576113700       18.7805979300       18.2782481400
      42
 i =        1, time =        0.000, E =      -241.0337985401
  H        18.0999814200       16.1164652200       24.0458286100
  H        17.6030038100       17.7687907600       19.5917548900
  H        17.8663101800       17.1455278700       18.2456982600
  H        21.5424021500       17.8375583400       22.3540008400
  H        20.8523959400       18.5441778400       21.2377630700
  H        15.7911696100       22.6825223400       18.7109772800
  H        14.5868389400       22.3017106700       19.5475332000
  H        16.1961165800       17.2430444000       21.7524106000
  H        17.6466380000       17.5637249200       21.9991637000
  H        20.0804226000       20.2784254300       16.6150717600
  H        18.8982037700       20.2689626800       15.6022591600
  H        18.0117770100       20.3229954600       24.3490139700
  H        17.0656679900       19.7467831300       25.4153651900
  H        18.2149144200       17.5619371700       14.2889839400
  H        19.0288678600       18.1824742400       15.3927895000
  H        19.1724466700       21.3771008500       18.6695512000
  H        20.2533414400       22.4217664800       18.1976939000
  H        17.0862462000       20.5275066600       22.3796033200
  H        18.2865576000       20.5134778700       21.5453364300
  H        19.5141761300       17.8048532300       22.9627768600
  H        18.3970338100       18.3963921300       24.0710864800
  H        17.2958746700       15.0199574100       16.6825119100
  H        17.7394322900       16.4387386100       16.2649876700
  H        16.8524971500       20.8681875200       19.4581495400
  H        17.9911645600       19.8155170600       19.0334034900
  H        20.9136589200       19.0443645700       18.5339532400
  H        19.9534632400       17.9095185500       19.0264303000
  H        17.2868427400       15.7679155300       25.1337515000
  O        17.5042753500       15.3812797900       24.2517994400
  O        18.1869874600       17.8101992300       18.8490575500
  O        20.7948828000       18.4740048000       22.1846595300
  O        15.5105290900       21.9931220100       19.3655984300
  O        16.8961459100       17.8444131600       21.3894974200
  O        19.7619486900       19.7590461400       15.8079527200
  O        18.0071258600       19.7268670600       25.1324869600
  O        18.6875606900       17.2782963100       15.0897271500
  O        20.0146435000       21.4884397300       18.1886484100
  O        18.0249219800       20.8025066000       22.4822760200
  O        18.6047274700       17.7208961200       23.4252403800
  O        17.0837854500       15.9473428800       16.9377279400
  O        17.8239870500       20.6523355600       19.5177448000
  O        20.8987951000       18.2399285400       19.1311444900
      42
 i =        1, time =        0.000, E =      -241.0105184929
  H        16.3537938800       17.4266456200       18.9650831400
  H        18.3490341000       18.3191244400       18.3397020100
  H        18.9761156300       18.0477720300       16.9798905000
  H        21.3895028800       17.5676348000       21.5684788900
  H        19.8111110900       17.3857724700       21.4036264200
  H        18.2300623900       20.7051088700       21.9438294600
  H        17.6189910200       20.5090501300       20.5285904200
  H        17.2130014400       18.6178788600       21.6714368500
  H        17.2848993600       17.3566827000       22.6043600800
  H        18.5567301100       21.8181604300       18.5587025600
  H        18.4580530100       20.4578603800       18.4441907700
  H        16.3737844100       18.9117068100       25.0770975400
  H        17.7386796500       18.1779670200       25.4382606800
  H        15.9672799700       16.5578191500       14.5930314200
  H        16.1272495300       17.5590895700       15.8345348700
  H        20.3034923100       21.2099068300       16.4002817700
  H        21.0142728100       21.5399394600       17.7597614200
  H        19.0956116800       19.5879314600       23.8185136600
  H        19.8301897200       20.8740998100       24.2411716900
  H        20.1786560600       17.7209594800       25.8111026300
  H        19.8633995600       17.0724266800       24.3856650200
  H        18.3362777500       16.3554860200       15.4653604300
  H        19.8663621600       16.2978560500       15.3970232100
  H        15.4571861500       19.4095654100       20.5056647400
  H        15.5358532000       19.9849901100       19.1564728000
  H        20.8147956000       19.9366818500       20.0901731600
  H        20.2216855200       19.3016577100       18.6334171900
  H        17.4538762300       17.1069396800       19.8626635200
  O        17.2977243800       17.2343380200       18.9143201500