      21
 i =        1, time =        0.000, E =      -120.5203706970
  H        17.7965135400       19.6247091200       17.7105900100
  H        21.2143178100       19.1031776800       15.5438267900
  H        20.8085952900       19.7307792800       16.8943097900
  H        21.1390822300       18.8638203300       19.5156727800
  H        20.1312460900       20.1169272400       19.3154420500
  H        15.3878245100       20.1910756700       20.4526923400
  H        16.5632650300       19.6094226500       19.5551145800
  H        18.1432132600       21.0444775800       20.3556267100
  H        18.8423953400       21.9163194000       19.2192080200
  H        17.5114759800       20.0955058300       15.9316585000
  H        19.0627286500       20.3848092300       16.0972056900
  H        17.8708266100       21.9903959800       17.5645068100
  H        17.1847372600       23.3163037800       18.1079005700
  H        18.7129103100       18.6480031300       18.3841602200
  O        17.7334119200       18.8355367800       18.3213988600
  O        20.6367343600       19.7772707200       15.9257124000
  O        20.6449186800       19.3998714700       18.8210898700
  O        16.0966707200       20.4837931400       19.8612087900
  O        19.0976845600       21.3234051800       20.0210053500
  O        18.1228963000       20.7872250900       16.2376567100
  O        18.0042344400       22.8566096000       18.0302713700
      21
 i =        1, time =        0.000, E =      -120.4941562693
  H        18.6613095000       18.8360267000       18.1529184000
  H        19.2552359200       22.4122049200       15.6909796200
  H        20.7805255400       22.0383942700       15.5989075800
  H        22.1922698000       20.8525246500       19.2917854500
  H        20.6737429700       21.0813899000       18.7583568600
  H        14.8546205000       20.0727446900       18.7657424200
  H        13.6005598600       20.1848780300       17.9108347400
  H        19.2904657300       20.2653227700       19.7877079600
  H        18.4806543400       21.5585851500       19.8507394300
  H        20.8678837700       17.9654032700       18.3832977200
  H        21.0290623700       19.4198340800       17.9707917400
  H        17.2883713600       20.6751579300       18.3779023700
  H        17.3587065000       22.2103943400       17.9267853000
  H        17.2068871900       18.2908297800       18.5140965200
  O        17.8958516200       18.9568422100       18.7787242600
  O        20.0650760100       22.6014585100       15.1767869700
  O        21.6094910000       20.7847674200       18.4988448100
  O        13.9893796700       19.6169415700       18.6569870800
  O        19.4140299200       21.2400231400       19.8834342900
  O        20.5001504900       18.5995736900       17.7417697200
  O        16.7887843500       21.5867388700       18.4608202300
      21
 i =        1, time =        0.000, E =      -120.4828332200
  H        19.0840092600       19.3530859900       17.4469631600
  H        21.0388698200       19.0802043200       19.1244967200
  H        22.4371366600       18.7392134500       18.5048607600
  H        19.0470389100       17.2197110700       19.7132938800
  H        19.0389974500       18.7188219800       20.2140262600
  H        14.3613322200       21.0006866300       17.6737863600
  H        15.6126994900       21.1173428600       16.7708311400
  H        17.1702764000       20.4164493200       18.8208929200
  H        18.5375193600       21.1971263300       18.8716491600
  H        21.7953603400       21.4377290300       16.1183377900
  H        21.7709879400       20.7444406100       17.5619799900
  H        15.1157482800       22.9071185200       18.1006794200
  H        15.2240814600       24.2802938200       18.7790678400
  H        20.0538301700       20.0636439600       16.5598154100
  O        19.2646014900       19.3755809000       16.4699278700
  O        21.8536851200       19.4829111200       18.7734321700
  O        19.6712292400       17.9209413500       20.1176079300
  O        15.3044343700       21.0555945300       17.7164319500
  O        18.0865817100       20.2847564300       19.2635446500
  O        21.2925956200       21.3953394600       16.9429911600
  O        14.8685421100       23.8452528200       17.9588048700
      21
 i =        1, time =        0.000, E =      -120.4954601007
  H        14.9148125900       18.5158995600       17.3440382700
  H        21.1990965100       20.2740982000       18.8486531900
  H        22.1490957900       21.3238322900       18.0280240800
  H        20.6228692400       18.7390034500       21.0234970400
  H        19.6203546800       19.1815094300       19.8529833000
  H        15.9641538400       21.4248695500       17.4469731700
  H        17.2567508100       21.8954320500       18.1582647500
  H        17.3654431500       19.6914176700       19.2201751700
  H        17.5435765500       19.0325210800       20.6023606400
  H        20.5117825100       20.9849520400       16.3710568200
  H        19.3163146200       20.1421527800       15.9219448000
  H        19.3598334700       23.6603468500       18.9115002400
  H        19.3898683900       22.1529861200       18.4465013900
  H        15.8855126600       19.6766338800       17.4217989300
  O        15.2233875100       19.2582842200       16.8020350100
  O        21.1954837800       20.9632799500       18.0744024000
  O        20.5840246700       19.0764740900       20.0784177500
  O        16.5030174900       21.2160443900       18.2198340600
  O        17.9860282800       19.1513012600       19.7590527300
  O        20.0276787900       20.7475170000       15.5206259000
  O        18.7709166100       22.9210275000       18.5781228700
      21
 i =        1, time =        0.000, E =      -120.5141575515
  H        17.4600523900       20.1184612100       17.0400140600
  H        22.6363075600       20.1652328200       18.0916564500
  H        21.2506665300       20.0248677100       18.4462272700
  H        19.5228489700       18.7232139800       19.7196990700
  H        19.3996713500       20.2559379200       19.9718238700
  H        15.9229951700       19.4128281200       18.3751362000
  H        14.7175609800       19.0688870200       19.2239776400
  H        16.8680997800       20.6011906100       20.1552175400
  H        17.7528686400       21.5995630800       21.1043954900
  H        20.0157987400       21.2941964600       15.1973956900
  H        21.1877742100       21.3790051100       16.2691560400
  H        18.6508209700       22.1489203700       17.1763807200
  H        17.7506524800       21.7602454800       18.3797819700
  H        17.4535840000       18.6899277500       16.4602092900
  O        16.8851127600       19.3461068100       16.9222643500
  O        21.8095703400       20.2294152400       17.7076118100
  O        20.0641839200       19.5110939700       19.7204874100
  O        15.5777494200       19.5524597700       19.3138143300
  O        17.7146829400       21.1917718200       20.2097103300
  O        20.4249639200       21.9039052900       15.8857472600
  O        17.8463909300       21.6907313800       17.3980251900
      21
 i =        1, time =        0.000, E =      -120.5090965635
  H        18.1623456000       18.3269922600       17.3501275600
  H        21.9982030100       21.1056075300       17.2934140900
  H        20.8217816900       21.2174231400       18.4469149200
  H        20.1727717600       22.5772155400       19.8785156400
  H        19.6814020600       21.2164625700       20.0015211500
  H        14.9810694600       18.7174802400       19.0687264800
  H        16.2072661400       18.7745294800       18.2945607300
  H        17.2012140600       20.2083923900       19.5455873800
  H        17.8158810100       21.4393251600       18.7479435800
  H        18.8647717800       19.7011131000       15.2805467600
  H        19.8040570300       20.0504284900       16.6487984800
  H        19.3639834200       22.4241006500       17.3859086400
  H        18.0285427800       23.3502441800       17.0661873100
  H        18.2553832300       17.9471002600       18.8614087400
  O        17.6719110200       17.7836928900       18.0990740700
  O        20.9606511900       20.9964253300       17.3891485600
  O        20.5220863500       21.7052835300       19.8389134400
  O        15.4969895400       19.4038793500       18.5700920400
  O        18.0415009900       20.6855498500       19.3367194300
  O        18.8697505400       19.6355194500       16.2945702300
  O        18.7113163800       23.1008486500       17.7388271100
      21
 i =        1, time =        0.000, E =      -120.5170468751
  H        18.5056885900       19.3172211700       17.2924744300
  H        21.7678594600       20.7426323900       16.6802596400
  H        20.4673334100       20.8381722900       17.5724846900
  H        19.2623649600       22.0496533000       18.4979389800
  H        19.5525063300       21.3040841300       19.8570270100
  H        17.4635248900       18.3358862900       19.0390512800
  H        16.3798471100       17.9450178100       20.1649599000
  H        17.6968605100       20.0246867900       20.5353138000
  H        17.2986181700       21.4462217700       20.4479134100
  H        17.9273732700       20.1352380600       15.2448778700
  H        19.2384875000       20.6713850500       15.9271155700
  H        17.6413775500       22.3159435700       16.6718598500
  H        17.7207217300       23.6651046700       17.5340441000
  H        19.3594419400       18.0308037400       17.8215015100
  O        18.4352092300       18.3193379500       17.5341600500
  O        20.8505949700       20.3878704100       16.7201887700
  O        19.9937231300       21.6086582800       18.9882916100
  O        16.9808685200       18.7047410500       19.8762316000
  O        18.0871515000       20.9234106000       20.6719872200
  O        18.2231421400       20.6402277500       15.9858247200
  O        17.7713508100       22.7417188800       17.5274135300
      21
 i =        1, time =        0.000, E =      -120.5073264226
  H        17.8941859200       19.7709091300       16.0275134200
  H        20.5984442600       21.6965286900       18.5846412100
  H        21.0488469800       20.2362049300       18.8895671500
  H        21.0354815700       20.0696392400       21.0782495500
  H        19.5840070000       19.4671656400       20.4641211500
  H        16.4403196400       19.7536185900       18.0873903300
  H        15.1179551500       19.3496408100       18.8794140200
  H        17.3251332200       20.1217371300       19.9171478500
  H        17.7461210400       20.2584863100       21.3570876900
  H        19.9103974300       18.8359290300       16.2761062900
  H        20.0236927600       20.3115945300       16.5093111200
  H        18.8748356300       22.9675421400       16.9966131500
  H        17.8857897400       23.4297132100       15.8596436700
  H        17.1301091000       21.0592280000       16.4708481100
  O        17.0424023200       20.0776498600       16.5635101000
  O        21.0738096100       20.9347623200       18.1531926700
  O        20.5814173000       19.5225724100       20.3432141400
  O        15.9660594700       19.8056758200       19.0221340200
  O        18.1630544900       20.3226994800       20.5018009600
  O        19.5705028900       19.6690464600       15.8737619200
  O        17.9237941100       22.9616857600       16.7134929500
      21
 i =        1, time =        0.000, E =      -120.5238542221
  H        18.1258517800       19.5384410400       17.0074425400
  H        21.8336902700       18.9343320000       17.8593187500
  H        21.1738746900       20.1729673600       18.4811931200
  H        20.3289661800       19.6946108500       20.6722263000
  H        19.1742263600       20.5256331500       19.7858524600
  H        15.9596176600       19.1251742700       18.1196426900
  H        14.9771844500       18.8853136900       19.3789991300
  H        16.7319275900       20.6607530200       19.3166742500
  H        17.7410652300       21.9307170100       18.7863552700
  H        19.4480774000       20.6911934500       15.4887674500
  H        20.2665183100       20.3674508700       16.7488026300
  H        18.9337495600       22.4353514900       17.3179168400
  H        19.3598743900       23.4589344300       18.3547051200
  H        18.2191647600       18.4144443100       17.9945571300
  O        17.6801003900       18.6445466200       17.2333270400
  O        21.6131609100       19.8691577000       17.6119358900
  O        20.1800380500       20.2602863600       19.8554934300
  O        15.3131895600       19.5356837100       18.7049461200
  O        17.5121325500       21.2345570600       19.4888600000
  O        19.3343837400       20.6915448400       16.4825193100
  O        18.5835449100       23.2153607100       17.7993930000
      21
 i =        1, time =        0.000, E =      -120.5118763453
  H        17.4403058000       16.1491684500       18.5343736800
  H        21.2117566600       21.0369121400       19.5078471800
  H        19.8447606800       20.4175486800       19.2489461100
  H        18.7826805100       18.2227830000       18.8310880300
  H        17.9627246500       19.5395547200       18.6168345500
  H        16.7463315800       20.2129500400       16.8884982300
  H        15.4648103800       19.6631466300       17.6332932000
  H        19.3821061300       23.9397112600       20.6702983700
  H        19.4392560000       22.5148650500       20.2130436300
  H        21.0194895200       22.6444932900       16.5691605500
  H        20.5393603300       21.5817886100       17.5574390600
  H        18.3253764100       21.6964715500       16.3290371100
  H        17.3230193000       22.0954499000       15.2828695900
  H        17.1350386800       17.2231110100       17.6068804600
  O        17.9442074600       16.7985347300       18.0056956500
  O        20.2883087400       21.3398227400       19.2874531400
  O        18.7931107800       19.2051667800       19.0986149600
  O        16.4323854000       19.4284895500       17.4017481800
  O        18.9264836100       23.0930402300       20.7952070400
  O        20.5363823300       21.8049314200       16.5772433000
  O        17.4000549500       21.6486771000       16.1253588600
      21
 i =        1, time =        0.000, E =      -120.5349191838
  H        17.7865661000       17.8447852100       16.9706003100
  H        20.5858628200       22.2972498800       17.9659385400
  H        20.6731633500       20.8151278600       18.1089386000
  H        19.6404501900       18.9815001300       18.6101717900
  H        19.6375609200       20.0302148000       19.8127641100
  H        16.3552868800       20.9231014600       18.8579019600
  H        16.9461357700       19.5113333000       18.6453829900
  H        18.3630340600       20.5183334000       21.6180710100
  H        17.5230668900       20.4210139000       20.3112598100
  H        19.5692475900       21.0952512500       16.2510141900
  H        18.8556621200       20.8713385600       14.8679783700
  H        18.1057807100       22.0733668700       18.3446689500
  H        17.8307931100       21.8159568700       16.8458166800
  H        18.5230791100       19.2406441300       16.7197250500
  O        18.2379091600       18.5980507700       17.4081998200
  O        20.8931568100       21.5388482800       17.3940274600
  O        20.2543344500       19.6319380800       19.0965250200
  O        16.3626722100       20.0063867800       19.2449541700
  O        18.4206663900       20.7863798700       20.6410392200
  O        18.7964838100       20.6148653400       15.8083380600
  O        17.3696548900       22.1736158300       17.6704764200
      21
 i =        1, time =        0.000, E =      -120.4856451230
  H        16.9664265400       20.7097698700       16.5754239300
  H        21.5883461800       22.2182548200       19.9388153800
  H        22.5664991000       22.0068999500       18.8602636800
  H        19.9603398500       19.2428633700       20.4264158600
  H        19.3048517600       20.4812163800       19.5956778200
  H        13.6962938800       18.2339384300       18.7641221000
  H        13.3723714800       16.7473917200       18.9355624000
  H        18.3514341300       22.2945004400       18.1268106900
  H        17.1555055200       22.3467226600       19.1954434300
  H        21.2748092600       19.5235893000       16.5894358200
  H        20.4028314600       19.6269435400       17.8989041700
  H        19.1978841800       22.4479044100       16.0495312600
  H        19.5360922100       21.1074494500       16.7231887400
  H        17.3664559600       19.3364851000       16.9951499100
  O        16.5436126400       19.8327355100       16.8038530000
  O        22.3190786900       22.7308424200       19.4831740400
  O        20.0010264200       19.7513512000       19.5189181900
  O        14.1204575000       17.3310096600       18.7644261300
  O        18.0867891500       22.1237064400       19.0848464200
  O        20.4279995200       19.7919796100       16.9482103500
  O        18.8142120000       21.7957237300       16.6132247900
      21
 i =        1, time =        0.000, E =      -120.5230867794
  H        16.7740243100       20.5401844100       15.6539896900
  H        20.4628312100       21.7612951600       18.7095360500
  H        20.5493003200       20.2017954200       18.3919308900
  H        18.8957327700       18.4788971600       18.6553582000
  H        19.1806917400       19.2492025600       19.9503734500
  H        17.1263520800       19.1125180200       17.3270278900
  H        16.7732930100       17.7618490600       18.1111043900
  H        18.4067058100       22.7968449700       18.6194399300
  H        18.3133108100       21.8024722700       19.8320272200
  H        20.0319457600       21.5093554500       15.4191462100
  H        19.8712661000       21.7950859100       16.9110551100
  H        16.2215386700       20.7737342900       20.5262382300
  H        16.7624284600       19.9569458300       19.3646746900
  H        18.1685336400       20.6713713900       16.0856614500
  O        17.4856470400       19.9726707900       16.0910232000
  O        20.8754078500       21.1274743400       18.1420835800
  O        19.5991654000       18.7044716700       19.2781985100
  O        17.2393155400       18.6308540100       18.1787182000
  O        18.9022594500       22.5333087500       19.4361791300
  O        19.3678894000       21.8847659300       16.0330211000
  O        17.0452416100       20.4982825100       20.1278160100
      21
 i =        1, time =        0.000, E =      -120.4934781997
  H        17.2705845800       16.6432916900       17.5563905900
  H        20.9994466300       21.6612988400       19.7520841400
  H        22.4375661300       21.2606838000       20.2898280500
  H        19.9618812300       19.6287344400       18.8415045600
  H        18.5968172700       20.3469248400       18.5636289300
  H        15.8380182000       18.5101311200       18.1451968200
  H        15.5720429100       19.7925528300       18.8388807400
  H        16.9967271500       21.6069088900       19.7823710300
  H        17.6441330300       22.0512373100       18.4600188600
  H        21.0419730500       20.7831215400       16.0410786200
  H        19.6612722600       20.5293758100       16.7566261600
  H        20.1709373100       22.5880860200       17.7246546500
  H        19.7188667000       23.9836523000       18.4859256200
  H        18.0667990600       18.0105690100       17.9133380800
  O        17.2539756700       17.6446889900       17.4697154800
  O        21.9128121100       21.5019552000       19.4568904000
  O        19.1189722200       19.5392574500       18.2994247600
  O        15.0194454500       19.0872435100       18.4434352100
  O        17.1308902000       21.3097451700       18.8580667800
  O        20.1685443300       21.1535827900       16.2205880500
  O        19.5045969700       23.0532949800       18.3124852400
      21
 i =        1, time =        0.000, E =      -120.5095340079
  H        19.1117248800       18.9686376600       17.8391168300
  H        20.9055305100       21.9495971600       17.2942578700
  H        21.6947038300       22.6197296300       18.3869318300
  H        20.7436754000       19.4757594100       18.9754014100
  H        19.6388739300       19.0312178300       19.9958706300
  H        16.8897304800       19.2317662500       17.9905748300
  H        15.8167404700       20.3472202800       18.1971533300
  H        17.4115269200       20.1553042200       19.8235910500
  H        17.5504126300       20.7658505300       21.2073972100
  H        17.6665557900       21.3496447500       15.3811973800
  H        18.4347917900       20.2154780300       16.1293719800
  H        18.4602827200       23.0954863700       18.4571889300
  H        17.9085316700       22.4347499900       17.2666506300
  H        18.5836581000       17.8554230200       16.9944638200
  O        18.5712503800       18.8393712300       16.9964903100
  O        21.4400279900       21.7322600700       18.1307158900
  O        19.9934485500       18.8362524500       19.1016687200
  O        16.1855952000       19.5357032000       18.5875877100
  O        18.0211411500       20.2357292200       20.5664071700
  O        18.5049472700       21.1529381500       15.8491755900
  O        17.5919394600       22.9512576800       18.0309517900
      21
 i =        1, time =        0.000, E =      -120.5007541850
  H        18.6298942900       18.0958880200       17.6603011000
  H        20.6279266600       21.3039606100       17.3030283600
  H        20.7286231800       21.9257434400       15.7704327100
  H        20.8966494600       20.6354558500       19.7108208700
  H        19.9897760100       21.9106816900       19.4776250300
  H        16.5686758900       20.8070922200       19.2325461200
  H        16.6083659900       19.2594393800       19.3194956700
  H        17.4237254400       22.4450561200       20.3649754800
  H        18.1372103500       22.6250917000       19.0316227100
  H        18.7596478200       18.3516227800       15.0774333800
  H        19.5203892700       19.5681169100       15.5534661900
  H        17.4021750300       20.2116587300       17.7903789600
  H        18.5426295200       21.1118758800       17.3142908800
  H        18.3679330400       17.4973826200       19.1213404200
  O        17.9916961900       18.0751317000       18.4283098800
  O        20.2923188900       21.2775264100       16.3963041800
  O        20.7524773400       21.4056365700       19.1529307000
  O        16.1787499200       20.0473147200       19.7108452300
  O        18.3195825600       22.6975422800       19.9951306700
  O        19.0371504500       18.7271899200       15.9068798900
  O        17.6489955200       21.1632256400       17.7489202000
      21
 i =        1, time =        0.000, E =      -120.5098060534
  H        15.0240944800       19.1387404300       16.2613898000
  H        22.9875525400       21.8767083100       18.0640068400
  H        21.7661116800       21.2018300800       18.2803553600
  H        20.5936208500       18.1319744200       18.7852096000
  H        20.0679704800       19.5464839700       19.3638185400
  H        16.4968942900       21.0329298100       18.8263080500
  H        16.4914147100       19.7917761200       19.5272718600
  H        18.5269111000       21.0113461900       19.6909953100
  H        18.9121270500       20.3857047800       21.0798249500
  H        19.2554614500       19.8789521600       17.2885421100
  H        17.8862729700       19.8285779400       16.4543317900
  H        18.2463241500       21.6662635600       17.5763805400
  H        17.8284223900       23.0614597100       18.2684155400
  H        15.9674837700       19.5321248500       17.3590748400
  O        16.0046830600       19.2337686300       16.4045045200
  O        22.0802627800       22.0070908600       17.7977243600
  O        20.6560239000       19.1050581300       18.7034691300
  O        15.9210156200       20.2561040300       18.8819727600
  O        18.7724127300       20.1626396900       20.1429503700
  O        18.6980692400       20.4096567000       16.7188045700
  O        18.2241485200       22.1980920400       18.4316944200
      21
 i =        1, time =        0.000, E =      -120.5056329122
  H        18.3197509900       17.7451603700       16.6003392700
  H        19.9494918000       22.5697413500       17.9448179100
  H        20.7803580700       21.5056537700       18.7678854600
  H        20.8114298500       20.2203041200       21.2329571800
  H        19.3685223100       20.4372315900       20.7086920600
  H        16.4646011000       20.0410636900       18.8832190300
  H        17.0639152200       18.8405195500       18.2498034900
  H        17.4289761500       19.1673964200       20.3690348200
  H        17.5507138100       19.5204338200       21.9895259000
  H        20.0587420600       20.4357108600       14.9781866300
  H        19.9004915100       21.3716464800       16.2797694200
  H        18.0570663100       22.2535219500       15.7868716600
  H        16.7252603400       23.1244171900       15.8680005300
  H        18.1479768200       19.1954002300       16.3027569700
  O        17.7494696300       18.4754403500       16.7504908100
  O        20.6876672300       21.9187298200       17.8121285300
  O        20.2775298600       20.6899532200       20.5187324800
  O        16.5990462200       19.1400095200       19.0817921600
  O        18.0472921000       19.4582774200       21.1648218400
  O        19.4323446700       20.8533031400       15.5501549300
  O        17.5269359200       22.8150655200       16.3834467000
      21
 i =        1, time =        0.000, E =      -120.5036381995
  H        18.1909289300       19.9850397000       16.1102624000
  H        22.3619104800       21.5542696600       19.8518865500
  H        21.3008380000       20.4857085300       19.6686209000
  H        19.9218638300       18.3224859000       18.5853352400
  H        19.0226134700       19.4963253800       19.1156668000
  H        16.7103912900       19.0409792400       17.3897334600
  H        16.0936125800       20.2441193200       17.7312326300
  H        16.9549486400       19.8913062600       19.5508409000
  H        17.5422862100       20.2258235500       20.9489075000
  H        20.1376329700       21.4401838900       18.0754377400
  H        20.2637417200       22.2632883300       16.7637191300
  H        18.0818188200       22.1594328400       17.4680136100
  H        16.8231022800       23.2157719900       17.4643444600
  H        18.8407379200       18.9020687500       16.9469665600
  O        18.0720667100       19.0361468100       16.3377810100
  O        21.8699816100       21.0814407400       19.1968158800
  O        19.7509901000       19.2724099700       18.4855235600
  O        16.1231256000       19.3912417500       18.1593151100
  O        17.7278902200       20.2842553500       19.9816586000
  O        19.5866498500       21.9705865000       17.4442833600
  O        17.0875698800       22.2643828100       17.5485094300
      21
 i =        1, time =        0.000, E =      -120.4868225765
  H        17.2515412500       21.2390454000       17.0456391800
  H        20.6700876100       20.2893732900       16.0270915300
  H        20.8775651500       20.8406773100       17.3980465500
  H        21.4326269100       19.6637846100       19.6075696500
  H        20.4301266800       20.6778967500       19.6165048300
  H        16.3117918600       20.0552798800       20.1257601500
  H        15.7336487800       20.0316795200       18.7760007600
  H        18.4321839000       21.8632302100       19.5814958500
  H        18.1833032600       20.5203358800       19.0261445000
  H        19.8954045300       19.0106701300       18.2036014500
  H        19.4998765400       17.9833839400       18.8420645900
  H        18.1614725300       23.4184763200       16.7524793000
  H        19.2104953700       22.2044556000       16.5691422600
  H        17.7605405800       19.7513184600       17.1983911200
  O        17.0812977100       20.3377748600       17.4650492200
  O        20.6566438000       21.1112237000       16.5214121200
  O        20.9309915000       20.1755069500       18.9188244200
  O        15.4299963100       19.8937973100       19.7009496600
  O        18.5138709200       20.9409695800       19.8451837800
  O        19.2341128300       18.3667412100       17.9705738400
  O        18.2702876300       22.4541124100       16.7886627400
      21
 i =        1, time =        0.000, E =      -120.5213447788
  H        17.9341593500       19.3416623000       16.4374079500
  H        20.6211127200       23.5926300800       19.1361735000
  H        20.2794485300       22.2258631100       19.5329009400
  H        20.2319133000       20.1771457300       20.2952284700
  H        18.6326268000       20.5529818600       20.1978910700
  H        16.0646855500       19.0219068200       18.1443016500
  H        14.7137952500       18.6144108900       18.7632740500
  H        16.3597911400       20.1779990700       19.6593647900
  H        17.1974593200       21.2325717200       18.7771670400
  H        19.7739310600       18.7044582100       15.2001725100
  H        19.9884453500       19.9866449400       16.1349758300
  H        20.7447607500       22.0610359900       17.3444036600
  H        21.3072463700       21.9887734800       15.8799575000
  H        16.4963270900       19.8493977500       16.0805580900
  O        16.9544626300       19.4171511100       16.7961681700
  O        20.9700672100       22.6807383800       18.9935114400
  O        19.5805015000       20.8528801100       20.3801305900
  O        15.6434708200       18.7906671800       19.0125663700