       9
 i =        1, time =        0.000, E =       -51.6071179130
  H        19.0691628600       22.2691385300       16.8733236800
  H        21.8316904800       14.6975850800       20.8832301100
  H        22.9810302200       15.5770287900       21.0510931500
  H        21.2786715100       17.2433272000       19.3770891300
  H        20.0949784400       16.7341508100       18.5328733800
  H        19.4549603500       22.5338987800       18.1471049200
  O        19.4373498800       21.7478052800       17.6550744800
  O        22.0926449900       15.6535988700       20.7106427800
  O        20.6661130700       17.5454213800       18.6244697500
       9
 i =        1, time =        0.000, E =       -51.6268923904
  H        21.4912514000       18.6885866400       19.2310431600
  H        22.9653116900       18.1917130100       21.5738739100
  H        22.0747569500       16.8744337100       21.4404344300
  H        19.1564283700       18.7650512800       17.5822829700
  H        18.0853120400       17.9644567300       18.1997848300
  H        21.6020736000       18.9783170900       17.8376011200
  O        21.0992461300       19.3288895000       18.5706826600
  O        22.4161049100       17.6408237700       20.9434194000
  O        18.6388819800       17.9514425900       17.4130617500
       9
 i =        1, time =        0.000, E =       -51.6256419606
  H        22.9313880800       19.8653985200       17.6719082600
  H        19.6856086000       17.2280344500       19.3943629800
  H        19.7060033900       15.7824637900       20.0717932300
  H        20.5460250700       19.2901049300       18.8806339800
  H        18.9909390100       19.2072112600       18.4552583500
  H        22.7617493000       19.4873795700       19.2181149800
  O        22.3730947800       19.3515223900       18.2805209800
  O        20.2221059900       16.4671844500       19.6068428800
  O        19.6065007000       19.0143673900       19.1767042500
       9
 i =        1, time =        0.000, E =       -51.6228380917
  H        20.5708759700       17.9191150200       18.9823799900
  H        20.2690734200       15.7826725400       21.2148433500
  H        19.1998322900       16.8156431500       21.1154947700
  H        22.2545869700       20.7920092400       16.9024259700
  H        21.6644466600       19.5479334900       17.7049985600
  H        19.5929679900       18.1437088300       17.6948412900
  O        20.4283146800       17.7256372800       17.9994354500
  O        20.1311536400       16.7232269300       21.4179828100
  O        21.7096429700       20.5013664800       17.6515066900
       9
 i =        1, time =        0.000, E =       -51.6368497602
  H        21.7171536800       19.1287594400       19.7185046000
  H        19.7188683000       17.9552776300       19.5170494100
  H        19.0448007200       18.6097766300       18.3133751100
  H        20.9297210400       18.0331076300       17.5932939600
  H        22.3570375400       17.6580177200       17.2381839100
  H        21.8716807200       18.2450941600       20.9812686700
  O        21.2455323000       18.8414719100       20.5319658400
  O        19.0365021100       17.7312520900       18.7987169900
  O        21.8555574800       18.3378803100       17.7542015400
       9
 i =        1, time =        0.000, E =       -51.6190071444
  H        17.7588474900       15.7439373000       18.7884027300
  H        21.8193147600       18.8652074700       18.8153266200
  H        20.7449324900       18.4398371400       17.7491828900
  H        22.9168696000       19.8044787700       20.4469269700
  H        22.2540542800       21.1895813100       19.9520182900
  H        19.0826213700       16.2953675200       18.7244107500
  O        18.2030816700       16.5036456300       19.1618810700
  O        21.6331020000       18.1322011400       18.1086768200
  O        22.3683576000       20.2301270400       19.7441027800
       9
 i =        1, time =        0.000, E =       -51.6326571125
  H        20.3538044300       17.3909406900       19.2318302800
  H        20.5886659300       17.9737007000       22.0726447900
  H        19.5535056200       18.7414840200       21.3036772100
  H        22.1125768600       19.8414759700       17.9974960900
  H        21.0922956000       18.8362972300       17.5319294600
  H        20.1134820600       16.7141937500       17.8538616500
  O        20.7810479000       17.2041818500       18.3797393000
  O        20.0969566000       17.9573622200       21.1970546400
  O        21.3745652600       19.7573730400       17.3424049500
       9
 i =        1, time =        0.000, E =       -51.6204880455
  H        23.1737506600       17.9479121200       20.7224452800
  H        19.4260987400       18.3522932700       18.2277615700
  H        19.8655818400       17.9855601100       16.7971353800
  H        21.1514230700       19.0386207800       20.0269739000
  H        19.6374689400       18.6404938000       20.5035921700
  H        22.1079448100       17.6694932400       19.5716970800
  O        22.8752001300       18.2331439600       19.7752703100
  O        19.1421573100       17.7352186200       17.4483124700
  O        20.1376861600       18.9419682900       19.7045522200
       9
 i =        1, time =        0.000, E =       -51.6270756516
  H        20.9103725100       16.2956840700       19.5535797400
  H        23.0851096900       18.9774296100       17.0769058600
  H        23.6189406900       19.4394068000       18.4364628700
  H        18.8127482600       19.7078368100       19.4331473200
  H        18.9809719500       18.3149632700       19.8883531800
  H        21.4252400700       17.3453549500       18.6445335600
  O        20.6026715900       17.1637371500       19.1798424900
  O        23.1414656300       18.7034974300       18.0507040500
  O        18.3182203600       19.0149774800       19.8750467900
       9
 i =        1, time =        0.000, E =       -51.6172553777
  H        21.3344605000       15.1582880300       16.2211370900
  H        22.5390687100       18.8044070400       20.8189301200
  H        21.9180961600       17.9767862700       19.6526799100
  H        19.1060162600       19.4374569400       20.7606847400
  H        20.1546089700       20.1247370300       19.9062554000
  H        20.1963565400       16.2189348600       16.1986007900
  O        21.1886715900       16.1018332100       16.1576245300
  O        21.6508991500       18.5826852500       20.4462920100
  O        19.3226339600       20.3463870200       20.4685804800
       9
 i =        1, time =        0.000, E =       -51.6288197141
  H        19.1733335400       16.7212345900       17.8569550300
  H        20.6124051400       20.0593492800       19.0222977000
  H        19.6173108300       19.0430633400       19.8684449000
  H        23.2344249300       18.1018478400       20.3038231800
  H        22.2818606800       17.4527610200       19.3376818500
  H        19.9728500300       18.0130936600       18.3841477300
  O        20.0729876200       17.0921055000       18.0249335000
  O        19.7273799600       19.6169214300       19.0515615700
  O        22.3842931000       18.2166154000       19.9194482200
       9
 i =        1, time =        0.000, E =       -51.6297108160
  H        20.8294932700       18.3617189800       20.1660512700
  H        19.8764994800       20.0214059500       19.8379362100
  H        18.7764922100       19.0205647500       20.5213028200
  H        21.7210656600       18.0000301700       16.1353137300
  H        21.3559513000       17.8185436400       17.6408375000
  H        21.2649330800       16.9190615500       19.8936541700
  O        21.5173266900       17.8514830200       19.6779916200
  O        19.6398404700       19.4401034100       20.6433089400
  O        21.0947659900       17.5868044800       16.7110750600
       9
 i =        1, time =        0.000, E =       -51.6221022662
  H        20.0603708400       17.6730477300       19.9196741200
  H        19.3739671400       20.1091281000       18.5384717000
  H        20.0203700700       20.4306274000       19.9206850900
  H        22.5580673100       18.7347519200       17.6401349900
  H        21.0993134200       18.6233469000       17.9705463100
  H        21.1734500100       17.0395966100       20.9142416200
  O        20.3651412500       16.8272725700       20.3201873200
  O        20.0405257800       19.7570289800       19.1939674000
  O        21.8172147500       18.1385217100       17.4735726400
       9
 i =        1, time =        0.000, E =       -51.6297495133
  H        21.7432481700       18.4719482200       19.7941807100
  H        22.7235128200       20.0735046300       18.5883963800
  H        21.8799009800       19.2102101000       17.5455408800
  H        19.1439230800       18.1957937900       18.2700432800
  H        19.7364405000       17.1500926000       19.1370420600
  H        20.8681785500       18.2387536400       21.0802620400
  O        21.2363991200       17.7710615600       20.2935542500
  O        21.7706685800       19.8024862400       18.3620504500
  O        19.1017980500       17.2293027900       18.3628867700
       9
 i =        1, time =        0.000, E =       -51.6280949004
  H        20.1972897000       19.7429614400       16.8025756400
  H        21.6028426000       18.6442079800       19.0661176900
  H        22.3270302800       19.0118284600       20.4530751600
  H        19.0025747600       16.5540820800       19.4383708600
  H        20.0030867100       17.4167749300       20.3142516100
  H        21.2241603500       18.8849847700       16.2153127400
  O        21.1588257300       19.5424959400       16.9374001900
  O        21.9651171800       18.2957765900       19.9156128000
  O        19.0944375200       17.0329665100       20.2994098400
       9
 i =        1, time =        0.000, E =       -51.6326060655
  H        20.7572481800       16.9241456500       19.9205133000
  H        20.6621331500       18.8221032700       16.8604680500
  H        21.2608901200       18.2906681600       18.1231607100
  H        19.8649833000       19.3276565700       19.4993849600
  H        21.0808548800       19.5660516200       20.5851376600
  H        20.1247846900       16.0517172100       18.8357324700
  O        20.9303199500       16.5797950600       19.0314240200
  O        21.1968512300       19.0938680600       17.5854788900
  O        20.1293953100       19.2777482500       20.4388281800
       9
 i =        1, time =        0.000, E =       -51.6162304051
  H        19.8129199400       19.1939081000       17.2665637700
  H        20.1602864600       16.9501549600       21.8549537800
  H        19.6551205400       17.2488469000       20.4995407100
  H        22.7988007800       19.3387166700       18.3913083100
  H        22.4424602800       17.8230092900       18.6713742700
  H        19.8777953400       20.0003953400       18.4512904500
  O        19.3307354300       19.2790970500       18.1355099600
  O        20.5165292000       17.0193298500       20.8956247300
  O        22.3465191300       18.5538988900       17.9420213100
       9
 i =        1, time =        0.000, E =       -51.6417550910
  H        19.6245624100       18.4173336700       18.4042717000
  H        19.6027261000       18.9431982500       20.6113515100
  H        20.9655171800       19.1119970200       19.9068243100
  H        21.5783208100       17.4006189700       18.7583254900
  H        23.0385924200       17.3398184500       19.1274366900
  H        20.0685804700       18.1619637900       16.9149536400
  O        19.8824382500       17.6591559700       17.7479227800
  O        20.0419028200       19.4839631700       19.9165361700
  O        22.2611944800       17.7835576700       19.3976502700
       9
 i =        1, time =        0.000, E =       -51.6327543204
  H        20.7058762800       16.6899173400       19.7540015000
  H        21.5469702200       18.9280222600       18.1650887700
  H        23.0736645200       18.8693123700       18.0070566700
  H        19.5910603600       17.9735256500       18.4163317700
  H        19.0120370400       19.3867690500       18.5039261000
  H        20.5502676800       18.0638989200       20.4192552300
  O        20.1648314500       17.1389716700       20.4373407900
  O        22.3582476800       18.8725622900       18.6976479000
  O        19.6875586500       18.8813402500       17.9559450600
       9
 i =        1, time =        0.000, E =       -51.6380721159
  H        19.3785114900       18.2430004200       17.5988698800
  H        20.7665773600       15.9279652100       19.8158421900
  H        21.1547567800       17.0602180100       18.8399597400
  H        20.2629688500       19.2036902900       20.3956639800
  H        21.5927811400       19.7397852200       19.9343911900
  H        20.5791284200       19.0939914700       17.9775601200
  O        20.3474007200       18.2772569200       17.4281670700
  O        21.2985272800       16.7305943900       19.7678480600
  O        20.6116573100       19.9255215300       19.8132260100
       9
 i =        1, time =        0.000, E =       -51.6289597430
  H        21.7255667600       17.3235760600       21.1625909300
  H        18.7761038400       19.0747270900       19.3690090300
  H        20.0295407100       18.1940767500       19.5073578600
  H        20.8990639000       19.2471692100       17.8897644800
  H        21.5074622500       20.3577595000       17.0931160400
  H        21.4547945700       16.3223209200       19.9550041900
  O        21.0640125500       16.6838512300       20.7850451800
  O        19.4896994900       18.7189110700       18.8268628800
  O        21.6624287700       19.4517939300       17.3712144300
       9
 i =        1, time =        0.000, E =       -51.6277411897
  H        18.7546614600       16.7099991600       19.2690323600
  H        21.9528910700       20.3071062100       17.4422076100
  H        21.1712973700       19.9881806100       18.5902162300
  H        20.8532608900       17.4207894200       19.8188235200
  H        22.2423495600       17.5822403600       20.4446833800
  H        19.4016259400       16.0333818700       18.1255861200
  O        19.5696937400       16.2227081200       19.0388311900
  O        21.1452913500       20.6486858800       17.8528109300
  O        21.5021918600       18.1392817100       20.1725219200
       9
 i =        1, time =        0.000, E =       -51.6354336183
  H        21.9324806700       17.2516589000       17.3009170200
  H        21.4965761700       17.7317785900       20.8898775700
  H        20.2863679500       17.1167307600       20.0269863100
  H        20.4113559400       19.3946639600       19.6568124700
  H        20.1940137300       20.6606491800       18.7540119500
  H        20.8327474800       18.1482830800       17.7973226500
  O        20.9681159500       17.1529191500       17.5457034700
  O        20.5011478900       17.8701126100       20.6443751500
  O        20.6989303300       19.8451248300       18.8277536500
       9
 i =        1, time =        0.000, E =       -51.6163717592
  H        22.2815695900       14.4570477800       20.2761194200
  H        22.4758255700       20.6656547300       18.7667628900
  H        21.3079891600       19.7188926400       18.6222157200
  H        17.9833759100       21.0656506900       18.0869016400
  H        19.3947465600       20.7790784800       17.6680890100
  H        21.2806503300       13.4205153100       20.7232982800
  O        21.3285643600       14.3560399100       20.5084464500
  O        22.0747847300       20.0143745200       18.1618961200
  O        18.7918980200       20.5101491900       18.3652909000
       9
 i =        1, time =        0.000, E =       -51.6224759852
  H        23.1414529000       18.7503716400       16.3819510600
  H        19.3643110000       18.0428215700       20.2204292100
  H        17.9256204600       17.6208549800       19.9289429800
  H        20.4074628900       19.4569001100       18.6460186300
  H        21.4159661300       18.3481312100       18.7615770400
  H        23.8645953400       18.9307763500       17.6111481700
  O        22.9641535800       18.7072975000       17.3353436400
  O        18.5570568300       17.4767823300       20.6777699900
  O        20.5861303600       18.6307696500       19.1859092100
       9
 i =        1, time =        0.000, E =       -51.6263939277
  H        20.3914547400       16.8883348000       18.4561377100
  H        19.5890900800       18.4013416400       21.0713253700
  H        21.0674359200       18.4399185200       20.7728721800
  H        20.3317981700       20.0415989200       16.8041341800
  H        21.0676912400       19.0786980900       15.8826499900
  H        21.6224888600       17.6135807100       18.1574599100
  O        21.2119541800       17.1545338200       18.9354472900
  O        20.4271305400       18.6049001700       21.5345873300
  O        20.5973794600       19.0986603400       16.7545355500
       9
 i =        1, time =        0.000, E =       -51.6144174058
  H        19.3713431200       15.6207859300       18.6370580700
  H        21.7912965400       21.6652787000       20.0603475500
  H        22.1778353700       21.7557097900       18.7223871100
  H        22.7507865600       18.1363158400       19.5050920200
  H        21.9690411400       19.3778284900       19.0509218700
  H        18.0685094400       14.8246014000       18.1221146600
  O        18.5518947500       15.1862758200       18.9025392100
  O        21.5850425300       21.2456915400       19.1884263800
  O        21.9698110400       18.3683493700       18.9475324200
       9
 i =        1, time =        0.000, E =       -51.6299633993
  H        21.5318289700       17.6278039600       18.1180697100
  H        20.1169195300       17.6490819500       19.9495247200
  H        19.6501308000       16.3531659900       19.2700458100
  H        19.0901338700       20.6170575400       20.2874607500
  H        20.5540709500       20.3107602600       19.7204344500
  H        21.6510205400       17.5826620300       16.5272475800
  O        22.0088879000       18.0237371700       17.3584940000
  O        20.4541926400       16.8883871800       19.3917176200
  O        19.8663682700       19.9663165400       20.3024709800
       9
 i =        1, time =        0.000, E =       -51.6387285107
  H        19.6609342500       17.9376531600       18.8338218700
  H        19.5359815500       20.3381016800       19.7637319900
  H        21.0398403300       19.8035975900       19.3517774900
  H        21.4977773600       17.6611517300       18.9401506000
  H        23.0599372900       17.5665094000       19.1312251900
  H        19.6604663800       17.0859658400       17.5754290200
  O        19.8864357900       16.9943158900       18.5046691400
  O        20.0354803300       19.7491607800       19.2113752000
  O        22.2902929100       18.1190590200       19.3540680700
       9
 i =        1, time =        0.000, E =       -51.6273756790
  H        19.2754620800       16.0083984400       17.3032528900
  H        21.8385871500       19.2204687800       20.2049026800
  H        22.0601393500       19.1867438600       21.6964433900
  H        19.2415540400       19.6529635700       18.8475926100
  H        19.9805063900       18.3294091900       18.4527005000
  H        19.8375520500       16.8252383000       16.0737754300
  O        20.0717369900       16.5526484700       16.9962898600
  O        22.5433941900       19.4758706300       20.8858887300
  O        19.7370181600       18.9077159000       19.2520383600
       9
 i =        1, time =        0.000, E =       -51.6172886285
  H        18.8648590200       16.0834716700       18.8285861700
  H        21.2918601000       16.4675833000       19.0462732900
  H        21.7094145600       17.4423794300       20.1055439100
  H        21.2925434700       21.0775900100       19.4157972000
  H        21.1855258400       22.2950488100       18.5479296600
  H        18.3089538100       16.0298065000       17.4976871000
  O        18.8867025200       16.6040390200       18.0185356100
  O        21.5674173800       16.5013089300       20.0123620300
  O        21.8716083900       21.8200089500       19.0489374900
       9
 i =        1, time =        0.000, E =       -51.6330004670
  H        20.3467059800       17.4286089100       18.5829374000
  H        20.1461254600       20.6730098700       19.7261137700
  H        19.7955307400       19.2214580000       19.1631087300
  H        23.1017727700       17.5495149200       18.5620502600
  H        21.9812082600       18.4775831900       18.9576824500
  H        19.0919646800       16.6129537700       18.6073759700
  O        19.4078664800       17.5293395300       18.6255292800
  O        20.6022946800       19.8475406600       19.4086281100
  O        22.2015204800       17.5127377900       19.0357577100
       9
 i =        1, time =        0.000, E =       -51.6187509682
  H        20.7135794600       16.5960836800       20.0124699300
  H        20.1447750300       19.8811881800       19.7792526500
  H        20.7167906000       19.2617426600       21.0508668300
  H        20.0118240600       19.6891291800       17.5141995100
  H        21.0479434100       19.0621512800       16.7271768100
  H        22.0561369000       16.2220318000       19.2054224000
  O        21.2258708100       15.8941865200       19.6182084800
  O        20.1171548500       19.0202339700       20.3007075800
  O        20.8543073700       19.9279950600       17.1075187700
       9
 i =        1, time =        0.000, E =       -51.6307594562
  H        22.4842349900       16.6577395200       18.0013524500
  H        19.7535989200       19.1679091500       18.1597049500
  H        19.6118259400       19.2578383000       19.6600432800
  H        21.9792148000       18.5513649900       20.9500157700
  H        21.4429216100       18.0538145500       19.5251692900
  H        20.9394413500       16.5506617700       17.6395147500
  O        21.5984214900       17.1289036900       17.9966244900
  O        19.0844343800       19.0770822000       18.8562698300
  O        21.4186993100       18.7922383100       20.1958179200
       9
 i =        1, time =        0.000, E =       -51.6281962257
  H        21.5235557900       16.5759381800       20.4559296100
  H        18.9467358400       19.7350883000       19.6180770900
  H        19.9107028200       18.9163264500       18.6837806000
  H        20.8370147400       18.9197797000       16.0794158200
  H        21.6928968400       18.6383207000       17.3291227600
  H        21.1847567100       18.2025339400       20.4014547700
  O        21.8593007400       17.4629772100       20.5889396400
  O        19.5263131300       18.9193098200       19.6137927900
  O        20.8492308800       18.4427608100       16.9321704500
       9
 i =        1, time =        0.000, E =       -51.6342836213
  H        19.3771468000       18.5070416100       17.2423954200
  H        19.6697722100       18.4027871000       21.2480696200
  H        20.8537252300       18.6910811500       20.3442558300
  H        23.0019273600       19.2915062900       18.6291336800
  H        21.8541968100       18.4167791200       18.3307448900
  H        19.8957738000       17.7447752400       18.5538079300
  O        19.9312630000       17.7535400000       17.5059534100
  O        20.0745947000       18.0614518100       20.4795093400
  O        22.1939014600       19.0058988400       19.0372536500
       9
 i =        1, time =        0.000, E =       -51.6362849804
  H        22.4358707400       19.9771632000       19.6002474600
  H        20.6715449500       18.8414324300       17.8456932800
  H        19.1292804400       18.9872304400       17.9570709700
  H        20.6229963100       16.5256276500       20.0950629700
  H        19.9321118000       17.5442815300       19.3042658100
  H        22.2455901200       18.4488566400       19.5303528000
  O        22.3045296300       19.2727723700       18.9865614000
  O        19.8230522200       18.3049884600       17.7653716200
  O        20.0479300900       17.2890835500       20.2717734000
       9
 i =        1, time =        0.000, E =       -51.6243958841
  H        20.8628363100       16.6478555900       18.3366813500
  H        19.8065226800       17.5438929400       20.0438562000
  H        19.7619262100       18.9766755900       19.2267473400
  H        20.7021251500       21.0683044900       20.7803658100
  H        21.7128194100       20.1363621700       19.9654157100
  H        21.5681271500       16.0531019900       17.1090084700
  O        20.8519443000       15.8355787600       17.7392496000
  O        20.2501010500       18.0951998600       19.3629529000
  O        21.1127204100       20.9296644900       19.8503484400
       9
 i =        1, time =        0.000, E =       -51.6194352808
  H        21.3948255900       17.1050623300       16.5986641000
  H        18.8166676900       17.9151311900       19.2343884900
  H        20.0641117800       18.1632680000       19.7484638100
  H        21.5466238700       20.4102694900       21.1495114300
  H        20.0047529300       20.7951975400       20.9015086800
  H        21.3004093700       16.9225215900       18.1300141900
  O        21.8720457900       16.7008666300       17.3162476000
  O        19.7200206300       17.9788558400       18.8472719400
  O        20.7037832400       20.1249459500       20.7701002500
       9
 i =        1, time =        0.000, E =       -51.6188939623
  H        23.4417979900       17.4822191700       18.7848124200
  H        16.6391565400       16.2697941400       21.2996271400
  H        15.2028145100       16.8693254600       21.1215696300
  H        23.1963970800       19.6224528500       17.4259520700
  H        24.5025719500       20.1600586400       16.8059287900
  H        21.9083606500       17.7193143400       18.4802610600
  O        22.7834060300       18.2151311900       18.6784240100
  O        15.8858838400       16.6706600600       21.7551305300
  O        23.5154392600       20.1197517000       16.6162696900
       9
 i =        1, time =        0.000, E =       -51.6219806897
  H        20.4956264400       15.9247571200       19.1314466300
  H        21.9698625200       17.8909665600       18.7574422900
  H        21.9777417700       19.1060569100       19.4582355100
  H        18.6571574300       20.0933736500       18.8463403900
  H        19.3986916700       19.2146607500       19.8948585200
  H        20.0651314500       16.1501289500       17.6809375800
  O        20.2232457000       16.6331856700       18.4622211800
  O        22.5828942000       18.3922046600       19.3232391900
  O        19.5251923100       19.9639745400       19.2737445100
       9
 i =        1, time =        0.000, E =       -51.6341416284
  H        21.1292167200       17.3541598100       17.8151314000
  H        21.8193569900       18.3690710800       19.7886173200
  H        22.4087858900       19.7681727400       19.4163617700
  H        18.4752959700       19.3284951400       18.3092299800
  H        19.9313000900       19.2230361800       18.7935767800
  H        20.4342574900       17.0814470900       18.9870367100
  O        21.3216882200       16.8352250000       18.6426845900
  O        21.7165408300       19.3313398000       19.9133328600
  O        19.1901546200       18.6498896200       18.5447263800
       9
 i =        1, time =        0.000, E =       -51.6324915171
  H        19.5859880600       17.5755425900       17.9295953500
  H        21.0065387100       19.3210086800       20.7465346600
  H        20.3229876500       18.2178558800       19.9515719200
  H        22.3989095800       19.0877715900       18.5883676000
  H        22.4961072500       19.1931483700       17.0868392600
  H        18.6407879100       16.8702762700       18.9772733800
  O        19.1130823400       17.7074632500       18.7689256300
  O        21.1236991700       18.3879473900       20.5520799300
  O        21.9756554600       18.7751502500       17.7690132300
       9
 i =        1, time =        0.000, E =       -51.6253605077
  H        19.7156886400       18.2107504300       19.8056907900
  H        21.5369619900       19.2082568700       18.7549608600
  H        22.3820229600       19.0916100900       20.1015569500
  H        20.7863016200       18.1311491100       16.9499070600
  H        21.6258129900       16.9720093300       17.5443092900
  H        18.8616009700       17.0986045100       20.7628538100
  O        19.0230531900       17.4740786400       19.8133306700
  O        21.6136254700       19.5383905800       19.7062978100
  O        21.5469611000       17.9559508300       17.5301247100
       9
 i =        1, time =        0.000, E =       -51.6317970226
  H        19.6591286800       19.2429413900       19.8333727000
  H        21.7325790400       16.4502710500       19.1565625100
  H        22.6183676700       17.4346026600       19.7544110400
  H        20.2045453200       19.0351742600       16.9939349800
  H        21.0100342000       18.6304419400       18.1885599000
  H        18.6947851500       18.0536597700       19.8988940400
  O        19.5347604900       18.4042713300       20.3113173800
  O        22.2639840400       17.1968673800       18.8600762800
  O        20.4472029500       19.3587940300       17.8842531400
       9
 i =        1, time =        0.000, E =       -51.6279311477
  H        21.1150450800       16.3893072200       19.0541341800
  H        21.1308626100       18.9163868500       20.8996475900
  H        22.0421170600       20.0559447000       20.7996091300
  H        20.6810029200       19.5775345700       17.1202163900
  H        20.7691367500       18.8338803800       18.4963083200
  H        19.9124323600       17.1048229000       18.4181472200
  O        20.2216323400       16.6679138900       19.2592888300