       3
 i =        1, time =        0.000, E =       -17.2020089764
  H        21.4366418200       23.4548844700       23.1834675100
  H        20.4432358800       22.4047236500       23.5792498800
  O        21.2739266000       22.7531734900       23.8075627800
       3
 i =        1, time =        0.000, E =       -17.2036455056
  H        21.8541150600       22.1694092400       23.3363824800
  H        20.5237685000       22.4892362100       23.8846840300
  O        21.1319673400       22.7741622400       23.2042204600
       3
 i =        1, time =        0.000, E =       -17.2045773664
  H        22.0718216700       23.3655477300       23.8905833500
  H        20.6199717500       22.8322405900       23.6676852200
  O        21.4669883300       22.9783776100       23.2129830300
       3
 i =        1, time =        0.000, E =       -17.2022164784
  H        21.9765811700       22.8800541200       23.9061899000
  H        21.3716527500       22.1484825700       22.6664960500
  O        21.1583276500       22.6335805900       23.4376912100
       3
 i =        1, time =        0.000, E =       -17.2017901888
  H        21.2795800500       23.2592455400       24.0986795300
  H        22.1241686700       22.9088133000       22.8338950700
  O        21.1399679900       23.0265761200       23.1496925700
       3
 i =        1, time =        0.000, E =       -17.2044116711
  H        20.3027802800       22.3185700600       23.4033737100
  H        21.3542046600       22.6386542900       24.5267149800
  O        21.2040532900       22.6978700000       23.5404174100
       3
 i =        1, time =        0.000, E =       -17.2041956960
  H        20.8846683800       21.7942090500       23.1439799700
  H        21.6502004800       23.1020900500       23.2281151600
  O        20.7834202600       22.6919252300       23.4417156100
       3
 i =        1, time =        0.000, E =       -17.2041936797
  H        20.8059112700       22.7840933200       22.4667053300
  H        20.7825345400       23.7645172700       23.5616753400
  O        20.8558206400       22.7895040900       23.4341675200
       3
 i =        1, time =        0.000, E =       -17.2047363138
  H        21.3016064800       21.8152397200       23.5351354500
  H        20.6114530200       22.5947828700       22.3774476300
  O        21.0261579400       22.7202514900       23.2614503300
       3
 i =        1, time =        0.000, E =       -17.2030538129
  H        21.0171602400       23.7721115500       23.2325212500
  H        20.7169620900       22.2168707300       23.4768224200
  O        21.4294810100       22.9187983300       23.5797902700
       3
 i =        1, time =        0.000, E =       -17.2047589477
  H        21.2388811700       21.8556320300       23.8939008500
  H        20.4354078900       22.7396874800       22.9754686900
  O        21.3681128000       22.5365080800       23.2053303600
       3
 i =        1, time =        0.000, E =       -17.2042106645
  H        21.1847956200       23.0121267600       24.2364311400
  H        21.5322385800       22.2617007400       22.9658146400
  O        20.9628552000       22.9523406800       23.2919674600
       3
 i =        1, time =        0.000, E =       -17.2048066891
  H        21.1220010800       22.9657173000       24.2235634800
  H        20.2297343600       23.6095906000       23.2053436300
  O        20.9395279100       22.9434802400       23.2575312900
       3
 i =        1, time =        0.000, E =       -17.2028035878
  H        21.6935522600       22.9743935100       23.5844062200
  H        20.7506348000       21.9538233700       23.1202551500
  O        20.7590579400       22.9396004700       23.2162081300
       3
 i =        1, time =        0.000, E =       -17.2047938763
  H        19.7383417700       22.5393666300       23.1232708200
  H        20.9060197500       22.7938795800       24.0548348200
  O        20.7118817300       22.6743482700       23.1132990000
       3
 i =        1, time =        0.000, E =       -17.2018318668
  H        20.9243447200       22.4257288800       23.9715465300
  H        21.7749379300       22.5948727400       22.8063532300
  O        21.0200482100       23.1010118900       23.2399736200
       3
 i =        1, time =        0.000, E =       -17.2045446595
  H        21.1599374900       22.0184589700       22.5696077400
  H        20.5499332400       23.3184957500       22.9478690600
  O        21.3272969300       22.7804646100       23.1657373100
       3
 i =        1, time =        0.000, E =       -17.2041774486
  H        21.0137604400       22.0146898000       23.2518766600
  H        21.0564380000       23.3597778200       22.4012346500
  O        21.0997550400       22.9935725800       23.3176982700
       3
 i =        1, time =        0.000, E =       -17.2023393124
  H        20.9175497200       21.8157209300       23.7877754600
  H        21.8899278200       22.7097996000       23.2152777400
  O        21.0799975500       22.2808799800       22.9806452500
       3
 i =        1, time =        0.000, E =       -17.2036378922
  H        22.0161092100       22.6906477200       23.3721893400
  H        21.2707525100       23.9091964900       22.8820989200
  O        21.0914027100       22.9648022200       23.0534611600
       3
 i =        1, time =        0.000, E =       -17.2029193623
  H        21.5611817600       23.6136713000       23.4698121500
  H        21.6125403900       22.7283079300       22.2083706900
  O        21.1458564200       22.7790835400       23.0466161300
       3
 i =        1, time =        0.000, E =       -17.2040811965
  H        20.8189703800       21.7400197100       23.3269270300
  H        22.0369381400       22.6080568800       23.4992586700
  O        21.0432920600       22.6863766900       23.3890353900
       3
 i =        1, time =        0.000, E =       -17.2007874040
  H        20.8059186400       22.3082692300       22.4301617000
  H        21.6304326100       22.2170571700       23.8739486800
  O        21.3191885200       22.7770816900       23.1106491800
       3
 i =        1, time =        0.000, E =       -17.2021583491
  H        21.6770157000       22.4267753400       23.4166295100
  H        20.3410435300       23.1097634500       23.8260516000
  O        20.8806685300       22.8529142000       23.1005250700
       3
 i =        1, time =        0.000, E =       -17.2009851745
  H        20.7137256700       22.0534732400       24.3566565300
  H        21.2783484500       23.2685155800       23.6746350700
  O        20.9474450500       22.3333562000       23.5106679000
       3
 i =        1, time =        0.000, E =       -17.2026951758
  H        21.7178088600       22.8815945500       22.4897126800
  H        20.4012507700       22.2195240800       23.0358045600
  O        21.3128181500       22.5794470200       23.2938598600
       3
 i =        1, time =        0.000, E =       -17.2008658380
  H        21.6240910700       23.9849162100       23.0161299800
  H        21.4730706200       22.8182593500       24.0090045600
  O        20.9937226300       23.3691752100       23.3027912600
       3
 i =        1, time =        0.000, E =       -17.1980690250
  H        20.9386208300       22.2224687700       24.0956210900
  H        19.7987218000       23.3029533400       23.5395152500
  O        20.7822060300       23.0028177600       23.5848535100
       3
 i =        1, time =        0.000, E =       -17.2023867692
  H        20.5770092700       22.2192153400       23.1881025300
  H        21.8984081300       23.1905154500       23.2654020400
  O        20.9882202900       23.0233675200       23.6004942500
       3
 i =        1, time =        0.000, E =       -17.2044089832
  H        21.7082035800       22.7142332100       24.1937737700
  H        20.3214558100       23.2881524300       23.9261572800
  O        21.0322217100       22.7953339200       23.4607375900
       3
 i =        1, time =        0.000, E =       -17.2024587670
  H        21.2999288300       23.0013871500       22.3687669100
  H        21.9780382500       22.4750982300       23.5774024800
  O        21.1088684200       22.9344016900       23.3065561100
       3
 i =        1, time =        0.000, E =       -17.2043586478
  H        20.5201521900       22.2689784700       23.5470339700
  H        20.9998400300       23.5658346000       22.8675266900
  O        21.0843291300       22.5996893700       22.8439577300
       3
 i =        1, time =        0.000, E =       -17.2018456969
  H        20.2255603800       23.5446712500       23.3798936500
  H        20.6835495900       22.0467298800       22.9486161100
  O        20.9348816400       22.8981161200       23.3446635700
       3
 i =        1, time =        0.000, E =       -17.2036521967
  H        21.4909162000       23.6540874700       23.3546086500
  H        20.4442617600       22.9520543100       24.1877581500
  O        20.9767780500       22.8394765400       23.3369938200
       3
 i =        1, time =        0.000, E =       -17.2017728468
  H        21.8973694800       22.5166418700       23.1689534700
  H        21.1583112300       23.8967209000       22.8178113400
  O        21.1291345900       23.0909191800       23.4628364000
       3
 i =        1, time =        0.000, E =       -17.2033228809
  H        21.0663700900       22.3600535400       24.5044506700
  H        21.7283030300       22.7525488600       23.1605717000
  O        20.8227398100       22.6700616400       23.5654643000
       3
 i =        1, time =        0.000, E =       -17.2016244351
  H        21.7806199700       23.3972697500       23.9081050800
  H        21.4589278800       22.5639783700       22.8131210700
  O        20.9444592900       23.0541698200       23.4934367300
       3
 i =        1, time =        0.000, E =       -17.2029866317
  H        20.6226672100       22.9457679200       23.9062147200
  H        21.8801168100       22.5024674000       23.1104880900
  O        21.0383590600       23.0270683400       23.0667853300
       3
 i =        1, time =        0.000, E =       -17.2032166123
  H        21.5804738500       22.4430861300       22.2825164000
  H        20.3089772300       22.4066566400       23.0308195400
  O        21.0382191400       23.0364728700       22.8926848500
       3
 i =        1, time =        0.000, E =       -17.2031777130
  H        21.3249948000       23.7368116600       23.3115341800
  H        20.4519179300       22.4257439600       23.6225935400
  O        21.2662569600       22.7409757400       23.1429592500
       3
 i =        1, time =        0.000, E =       -17.2047318672
  H        19.8246900100       23.0146128000       23.0101683800
  H        21.0316589800       22.4397950000       23.6921198400
  O        20.7592730200       23.2115727800       23.1713630500
       3
 i =        1, time =        0.000, E =       -17.2046130560
  H        21.6260616400       22.3993920500       23.9284373900
  H        20.6245184500       22.0836003800       22.8356640400
  O        20.9400348500       22.8472287800       23.3748345300
       3
 i =        1, time =        0.000, E =       -17.2047234417
  H        20.2655382300       23.3566112400       23.4197474300
  H        21.2651061400       22.4703675900       24.1056198900
  O        21.0083189700       22.7513830500       23.2145806700
       3
 i =        1, time =        0.000, E =       -17.2029194386
  H        20.8498303700       23.2189157300       23.8961275200
  H        20.5018587500       22.8179102000       22.5181419000
  O        21.2557361000       22.7750142500       23.0918410500
       3
 i =        1, time =        0.000, E =       -17.2046506433
  H        20.9357716900       22.3774409400       22.4689886600
  H        21.8469710500       23.1695508400       23.4394743400
  O        21.0960163700       22.5329670200       23.4358724400
       3
 i =        1, time =        0.000, E =       -17.2035763749
  H        21.1016845300       23.6212429100       23.1793398200
  H        21.4845924000       22.2100397600       23.8441913700
  O        20.8625286200       22.6531710300       23.2097657200
       3
 i =        1, time =        0.000, E =       -17.2037239992
  H        20.8137084300       23.3921829800       24.1064270600
  H        21.8020863300       23.6657010600       22.8858053200
  O        21.0289121300       23.1335511100       23.1556833600
       3
 i =        1, time =        0.000, E =       -17.2037287989
  H        21.7987254600       23.1558214900       23.2957248000
  H        20.2441170100       23.2776904900       23.0985648300
  O        20.9452318200       22.6823144100       23.3546743800
       3
 i =        1, time =        0.000, E =       -17.2039963832
  H        21.6683037100       23.6989391200       22.8018548300
  H        21.2431220600       22.2267385200       22.6124083100
  O        21.0252246500       23.0220192500       23.1726973900
       3
 i =        1, time =        0.000, E =       -17.2038673857
  H        21.4188320700       23.6822822700       23.5567537600
  H        20.8061073300       23.4436917300       22.2444022500
  O        20.9505313600       22.9971078400       23.0829586300
       3
 i =        1, time =        0.000, E =       -17.2033474926
  H        21.5541095100       23.4431978100       22.7442470600
  H        20.3787820800       23.1484380600       23.6513129000
  O        21.1147433400       22.7345973200       23.1798328500
       3
 i =        1, time =        0.000, E =       -17.2022067176
  H        20.9817667100       23.5071133100       24.3197595800
  H        21.6783422200       22.3390999200       23.6317962400
  O        20.9173264600       22.9205115200       23.5982167200
       3
 i =        1, time =        0.000, E =       -17.2037542295
  H        20.8794102300       23.3181761000       23.9057150100
  H        21.1808557100       22.0842715600       23.0437850000
  O        21.4100568800       22.9956461700       23.1581384900
       3
 i =        1, time =        0.000, E =       -17.2015983294
  H        22.1861756700       22.6135747600       23.1734907500
  H        21.4437802900       23.7912610900       23.5570565400
  O        21.2459404600       22.8338175300       23.4877066700
       3
 i =        1, time =        0.000, E =       -17.2018688391
  H        21.3967961100       23.0031290900       24.1213331100
  H        20.4825542800       23.6098367400       23.1551955600
  O        20.9744663000       22.7247771800       23.2877819400
       3
 i =        1, time =        0.000, E =       -17.2009884090
  H        21.2197755400       21.8728297600       23.6991304900
  H        20.2886816700       23.1962049500       23.5248141200
  O        21.1215115700       22.7184740100       23.2829478200
       3
 i =        1, time =        0.000, E =       -17.2030511433
  H        20.5186799000       22.8775664200       22.6067854200
  H        21.5981104300       23.3992522600       23.6224167400
  O        21.0831841900       22.6423788700       23.3456205100
       3
 i =        1, time =        0.000, E =       -17.2028254427
  H        20.5175413400       21.9877311100       23.3775345500
  H        21.6735384100       22.5390943900       22.5691700800
  O        21.0785036700       22.7526353200       23.3634189800
       3
 i =        1, time =        0.000, E =       -17.2032226400
  H        20.9451921300       23.2085038800       22.4994895700
  H        20.6865804200       23.1921588700       24.0299750100
  O        21.1137422300       22.6345762000       23.3267028000
       3
 i =        1, time =        0.000, E =       -17.2010780752
  H        21.3045288600       22.1451343600       24.1097982000
  H        21.7543233000       22.5793375200       22.6237416600
  O        21.0238305900       22.7401828200       23.3138452600
       3
 i =        1, time =        0.000, E =       -17.2044884657
  H        20.6714899600       23.5185513500       23.5544275400
  H        20.4549625800       22.0263025200       23.0976510700
  O        21.1455793700       22.6884955300       23.3189776400
       3
 i =        1, time =        0.000, E =       -17.2015942730
  H        21.6278009900       22.4324402900       22.6147523900
  H        20.8396252100       21.8708573200       23.8171919000
  O        21.0610927500       22.7667184700       23.3328469600
       3
 i =        1, time =        0.000, E =       -17.2035472938
  H        21.8660642700       22.2753803300       23.4742385000
  H        20.3862913400       22.1222483300       23.6132430800
  O        21.0746430500       22.7607752400       23.2915455400
       3
 i =        1, time =        0.000, E =       -17.2037448236
  H        22.0122419800       22.9030174600       23.1494191600
  H        20.9078871900       21.7666099000       23.2686514200
  O        21.0325706900       22.7436382500       23.3337210600
       3
 i =        1, time =        0.000, E =       -17.2021348199
  H        21.2855082200       22.8274996700       22.3794933500
  H        21.4002687700       23.4930250400       23.6936645300
  O        21.0473357900       22.6396252100       23.3554519100
       3
 i =        1, time =        0.000, E =       -17.2047100610
  H        21.7170214900       23.3782193300       23.4858250600
  H        21.5219651800       22.0078071200       22.8354738200
  O        21.0124814100       22.6985022900       23.3398180600
       3
 i =        1, time =        0.000, E =       -17.2039486949
  H        20.2149242000       22.6222875000       22.9915473300
  H        21.1167638900       22.3062749600       24.1389647400
  O        21.1326487400       22.7273243200       23.2888344300
       3
 i =        1, time =        0.000, E =       -17.2043651080
  H        20.3918062500       22.1625691000       23.6869873000
  H        20.9857577500       22.8214041100       22.3826861700
  O        21.1297583700       22.7238332200       23.3556714500
       3
 i =        1, time =        0.000, E =       -17.2044164904
  H        20.3077625800       23.0986808900       23.0222987100
  H        21.8070217700       23.1248038500       22.8906565300
  O        21.0833105700       22.6457391100       23.3655453200
       3
 i =        1, time =        0.000, E =       -17.2043174697
  H        21.5087777500       22.8026978500       24.1501954400
  H        21.5718635300       23.0279164300       22.5824031600
  O        21.0224577900       22.6704915000       23.3139045500
       3
 i =        1, time =        0.000, E =       -17.2031438316
  H        20.6835430100       23.5912570600       23.3851661900
  H        21.6778381600       22.5709240500       24.0353695300
  O        21.0677740100       22.6496014800       23.2705618000
       3
 i =        1, time =        0.000, E =       -17.2029575909
  H        21.3025196200       22.5639901300       24.2342113400
  H        21.8506670200       23.1636231000       22.9808364400
  O        21.0178871500       22.6769809700       23.2835083700
       3
 i =        1, time =        0.000, E =       -17.2042909891
  H        20.7532162600       21.8347731000       23.2057635300
  H        20.3467673700       23.2635713100       23.1284673400
  O        21.1472470200       22.7166273900       23.3390033000
       3
 i =        1, time =        0.000, E =       -17.2046317424
  H        21.5502363900       22.6235698000       24.1173017100
  H        20.8186805300       21.8352613300       23.0253172500
  O        21.0672992300       22.7569192400       23.2880716600
       3
 i =        1, time =        0.000, E =       -17.2048576253
  H        21.1707943300       21.8708227000       23.7364176300
  H        20.2466697100       22.7523671900       22.9009871300
  O        21.1272445000       22.7465639900       23.3199021400
       3
 i =        1, time =        0.000, E =       -17.2034460390
  H        21.7161717400       23.3183828800       23.1297763200
  H        20.6758195500       22.8426011700       24.1676993200
  O        21.0658454500       22.6496769000       23.2783150900
       3
 i =        1, time =        0.000, E =       -17.2025810406
  H        21.0767306400       22.2148796100       24.1281127500
  H        21.2932598800       23.5727461200       23.6355673700
  O        21.0672315900       22.6731999400       23.2489423500
       3
 i =        1, time =        0.000, E =       -17.2034820845
  H        21.0284618100       22.9981202500       24.2170467200
  H        21.4302060300       23.3534153500       22.7031758100
  O        21.0616445600       22.6376714100       23.3020835100
       3
 i =        1, time =        0.000, E =       -17.2044971923
  H        21.2570140700       22.0549888200       22.6443395500
  H        21.8599140400       23.1370115000       23.6242197300
  O        21.0201715700       22.7107267000       23.3431408700
       3
 i =        1, time =        0.000, E =       -17.2025973171
  H        21.3324148100       22.1743006900       22.5341398800
  H        21.3487311300       23.6105008600       23.1640764600
  O        21.0476275700       22.6733778900       23.3790747100
       3
 i =        1, time =        0.000, E =       -17.2038875264
  H        21.0912323800       21.8147874400       23.5826064500
  H        21.2177774400       23.1663847200       24.1100839400
  O        21.0710736200       22.7240097000       23.2534150100
       3
 i =        1, time =        0.000, E =       -17.2025951250
  H        20.2643030900       23.1755664200       23.0872490500
  H        20.9473279200       21.7975131400       23.3402484700
  O        21.1402128000       22.7245195600       23.3331271200
       3
 i =        1, time =        0.000, E =       -17.2048977911
  H        21.1927088400       22.6995289300       22.3870895100
  H        21.7495842600       23.2043462600       23.7351922700
  O        21.0311742700       22.6658757700       23.3523569100
       3
 i =        1, time =        0.000, E =       -17.2043683808
  H        20.9444345400       22.6857358900       22.3871252500
  H        21.6662990400       23.4242448500       23.5366133700
  O        21.0520638300       22.6528903100       23.3648659200
       3
 i =        1, time =        0.000, E =       -17.2031337675
  H        21.2095322200       23.6360766200       23.0888067100
  H        21.3824254400       22.6027793100       24.2107933000
  O        21.0532467900       22.6447706600       23.2781812300
       3
 i =        1, time =        0.000, E =       -17.2024383401
  H        21.3631612200       23.3445106600       22.7297753200
  H        20.8538844700       23.1847379000       24.0463210800
  O        21.0768677100       22.6264747900       23.3111640300
       3
 i =        1, time =        0.000, E =       -17.2028815000
  H        21.2621420800       23.5986632800       23.4843002300
  H        20.1307376000       22.5768094700       23.5202631700
  O        21.1287934200       22.6487640600       23.2967697100
       3
 i =        1, time =        0.000, E =       -17.2036673501
  H        20.5443835600       23.0957094900       23.9681184900
  H        21.9630136800       22.6718164100       23.5477806900
  O        21.0585744200       22.6744663200       23.2645535400
       3
 i =        1, time =        0.000, E =       -17.2030631251
  H        20.2227807100       23.0048202200       22.9998949300
  H        21.7937143600       23.2101460000       22.9057429200
  O        21.0895031900       22.6462758100       23.3660063400
       3
 i =        1, time =        0.000, E =       -17.2045782346
  H        21.3418706900       23.2377148000       24.0329069000
  H        21.5394152000       21.8807457400       23.4299070000
  O        21.0350179700       22.7153599900       23.2678981100
       3
 i =        1, time =        0.000, E =       -17.2036731117
  H        20.2527769300       22.7540355800       23.7919035300
  H        21.8348651700       22.5456927900       23.9034137300
  O        21.0850206500       22.7039394000       23.2532494900
       3
 i =        1, time =        0.000, E =       -17.2029112198
  H        21.8984076500       23.1268520200       23.6495266700
  H        20.6807623000       23.2858831100       22.6964968000
  O        21.0540524600       22.6338155900       23.3382603100
       3
 i =        1, time =        0.000, E =       -17.2041322519
  H        21.2261114900       23.4136317400       23.9345947500
  H        20.1553672100       22.6708436700       23.1832076200
  O        21.1295117300       22.6544972400       23.2896352000
       3
 i =        1, time =        0.000, E =       -17.2045683649
  H        20.7421357400       22.9089011400       24.1844466600
  H        21.0069703700       21.7789954700       23.1425610500
  O        21.1063497500       22.7424872100       23.2764544400
       3
 i =        1, time =        0.000, E =       -17.2029098880
  H        20.4730754000       22.7915223000       24.0763825100
  H        21.7460228300       22.0440342800       23.4312960300
  O        21.0767383900       22.7331840500       23.2650714700
       3
 i =        1, time =        0.000, E =       -17.2033903688
  H        20.1824279800       22.7782164500       23.0942511000
  H        21.0812662300       22.7834322400       24.2246764400
  O        21.1369326100       22.6874373900       23.2769635300
       3
 i =        1, time =        0.000, E =       -17.2038558759
  H        20.5015031200       23.3522150700       22.9815180000
  H        21.5508330800       22.3107914100       22.6470578500
  O        21.0872450600       22.6810514500       23.3834623400
       3
 i =        1, time =        0.000, E =       -17.2046059419
  H        21.0840108300       23.3871409800       22.6821864400
  H        21.1854608200       23.0997601000       24.1727139100
  O        21.0735646700       22.6291428500       23.3061990700
       3
 i =        1, time =        0.000, E =       -17.2045057306
  H        20.2698000500       22.2150176200       23.4465168000
  H        21.7623551700       22.0695210800       23.2777617400
  O        21.0885165400       22.7679003400       23.3144287600
       3
 i =        1, time =        0.000, E =       -17.2042675305
  H        20.5865013800       23.1939527200       22.6995863300
  H        21.1182682600       23.2445683200       24.0929865300
  O        21.1091431200       22.6321909700       23.3101259400
       3
 i =        1, time =        0.000, E =       -17.2042964216
  H        21.8169908500       23.1080985100       22.9029278800
  H        20.7344333000       23.3439301500       23.8849835900
  O        21.0558005600       22.6313399400       23.3104196300
       3
 i =        1, time =        0.000, E =       -17.2040609795
  H        20.3983304500       23.2455315100       23.7177491700
  H        21.9040003300       22.8488294000       23.7737371700
  O        21.0714944200       22.6538744300       23.2660916300
       3
 i =        1, time =        0.000, E =       -17.2048147229
  H        21.0128900600       22.0104765000       22.6740356100
  H        20.4830475100       22.4926680700       24.0085711500
  O        21.1223003600       22.7541273100       23.3170542400
       3
 i =        1, time =        0.000, E =       -17.2028759546
  H        20.8286596700       21.8428252800       23.1366037800
  H        22.0100055700       22.8575007200       23.1021301500
  O        21.0377032400       22.7417041100       23.3450199800
       3
 i =        1, time =        0.000, E =       -17.2048778387
  H        21.5183802500       22.2538341700       22.6141348600
  H        20.3439846500       23.1752953300       22.9783283000
  O        21.0992140000       22.6957866300       23.3857375700
       3
 i =        1, time =        0.000, E =       -17.2003399288
  H        21.0966303500       21.7508455300       23.2210580000
  H        21.6149573700       22.9135839700       22.5533069100
  O        21.0457096100       22.7439657400       23.3742770500
       3
 i =        1, time =        0.000, E =       -17.2043501484
  H        21.9895753300       22.7429532200       23.5861180500
  H        20.6772881400       22.0319882700       23.8605411800
  O        21.0485274200       22.7370030400       23.2689159200
       3
 i =        1, time =        0.000, E =       -17.2024358593
  H        20.1918416300       22.7915316700       23.2677914600
  H        21.4280185500       23.3160799400       22.7391276100
  O        21.1144927500       22.6530395800       23.3596252300
       3
 i =        1, time =        0.000, E =       -17.2017574215
  H        20.5076782900       23.4196480400       23.1402615600
  H        21.4462388500       22.2942886500       22.4873519200
  O        21.0934458500       22.6778426500       23.3835229600
       3
 i =        1, time =        0.000, E =       -17.2038247648
  H        21.6955652600       23.4006366100       23.3982475900
  H        21.4166192500       22.0340673900       23.8470901700
  O        21.0204704300       22.6954354100       23.2815999700
       3
 i =        1, time =        0.000, E =       -17.2045610991
  H        21.1381099500       23.4215778700       22.7202700900
  H        20.6610440400       22.9592882400       24.0974365400
  O        21.1031965500       22.6358234600       23.3085424100
       3
 i =        1, time =        0.000, E =       -17.2027235786
  H        21.9173313300       22.5039970200       23.7134849400
  H        20.9855286200       22.5716687600       22.3787901400
  O        21.0336587100       22.7180562300       23.3542474600
       3
 i =        1, time =        0.000, E =       -17.2024615091
  H        22.0516491200       22.2987264300       23.5978070200
  H        20.4416449000       22.3678580100       23.5120704400
  O        21.2352789600       22.8283386800       23.7856903300
       3