      36
 i =        1, time =        0.000, E =      -206.6296932452
  H        18.3819567500       21.6976259300       18.8241168300
  H        19.5124911900       18.5503409200       18.5477005000
  H        21.1102074000       18.9080942500       18.9313163600
  H        18.1043992700       16.6980315400       18.3342400000
  H        17.7251956100       17.9054772100       19.3376881100
  H        23.8241484200       21.5996710400       18.9090994700
  H        25.2602068200       21.2532300100       19.4795538400
  H        17.2554252100       20.0737202600       19.4661310200
  H        17.0243262100       19.3767293400       20.9025896200
  H        22.3486625200       22.2993199500       17.7934653100
  H        21.5029520700       22.3554123000       19.0175371500
  H        20.1110020300       21.4129790700       22.7781854600
  H        20.3560589100       20.2888764600       21.7900980000
  H        20.1029081100       20.5966930000       19.1563352800
  H        19.7907242200       21.6097457000       20.3837574300
  H        22.0288227400       18.7590223300       20.9855996800
  H        20.6048318600       18.5449955000       21.7304840000
  H        18.9143966000       16.8507116300       20.9070758800
  H        18.6418388100       15.9513558200       22.0851687500
  H        18.4692285800       19.5329405300       22.7785007900
  H        18.3053436300       18.1491861200       22.4465158400
  H        23.2060137700       17.7541004600       19.4570069100
  H        23.6624310800       19.3923177600       19.6805209300
  H        17.1099315000       22.3826476800       18.3560922000
  O        17.5125874900       21.4878935000       18.4220657900
  O        20.2607326800       19.2439524900       18.6404886600
  O        18.4640176100       17.2717277800       19.0622718500
  O        24.4831219600       20.8541157500       19.1096691600
  O        16.8471773100       19.2568084800       19.9183787400
  O        22.4651920200       22.6301060900       18.7221008100
  O        19.6537152100       20.9861924700       21.9579688700
  O        19.9871808100       21.5593026100       19.3833316800
  O        21.4730057400       18.9727184800       21.8287847700
  O        19.2082301600       16.7023308500       21.8153840800
  O        17.7395775600       18.9630169900       22.5495792200
  O        22.9763727800       18.6699492500       19.7371781200
      36
 i =        1, time =        0.000, E =      -206.6193112781
  H        17.6273546800       21.8285912400       17.9748059900
  H        18.5338232100       18.5848941400       18.0202100600
  H        19.9585054400       18.2046142800       17.5828864100
  H        16.4424421100       16.8334310700       19.5070447700
  H        16.6752473500       18.3838054200       19.4994173800
  H        24.7263750500       20.0732010700       19.7638070200
  H        25.3505706200       21.3712281900       19.4353832300
  H        16.5220086800       20.8435177500       19.5477128900
  H        16.4173355100       19.9707787800       20.9324712900
  H        23.2759676700       22.0950467700       17.3459757500
  H        23.2428888000       20.8013781000       18.1810978500
  H        20.9002173300       19.8099252400       22.2748334300
  H        20.3156148100       20.8235662400       21.3446056800
  H        20.0985760600       20.5570570000       18.7685472700
  H        21.0670808600       21.6643225000       19.3798365500
  H        22.3626529000       18.0049671000       22.2119897200
  H        20.7049103600       17.6640427300       21.8279464100
  H        18.6902971500       17.0696987800       20.6911982500
  H        18.7632833800       17.8282326800       22.0028185200
  H        18.8720832400       19.8847081200       22.6552140200
  H        17.8817084500       19.2713428700       23.6221472500
  H        22.3254055600       18.9278754500       20.0406959200
  H        22.9393537200       18.1787143300       18.8505515400
  H        18.4362398700       21.9322995200       19.3362310100
  O        17.5381581400       22.0891058900       18.9194343500
  O        19.3720239600       18.9993732800       17.6634437400
  O        17.2019196400       17.4619006300       19.4427285100
  O        25.4399966600       20.6191701900       20.1152721200
  O        16.1222459300       19.9720404300       19.9791497600
  O        23.1502574100       21.8066251200       18.2859074200
  O        20.4625711400       20.6746709800       22.3394654100
  O        20.2273709600       21.2236923800       19.4877627100
  O        21.5517160700       18.2594991900       21.6656297800
  O        19.2573159100       17.1681520400       21.4649948700
  O        18.0056313100       19.3590461300       22.6824694400
  O        22.8187933100       19.0490108600       19.1816738000
      36
 i =        1, time =        0.000, E =      -206.6200840875
  H        17.4465763800       20.4009145200       22.4508867200
  H        20.7361894700       20.1048386600       16.3638457500
  H        21.3510491700       20.0944864100       17.8916620300
  H        19.4426202000       18.6654892800       18.0180575300
  H        18.1383517500       18.1295014000       18.6447691000
  H        22.7551425100       23.1751984700       18.9429603300
  H        24.3652640800       22.8915218600       18.9229552700
  H        16.9404693700       19.1199938400       20.5284277600
  H        15.9380840300       18.9288806700       19.5140156200
  H        20.7043037100       23.2116992500       20.1034143400
  H        20.5992767700       24.4211488400       19.1634110800
  H        18.7647709100       18.2453765800       22.5967491100
  H        19.9113402400       19.1924767700       22.8219130400
  H        19.9719273500       20.9563658000       19.7893418700
  H        20.8097975900       20.8731735500       21.0329329000
  H        22.0467842200       19.0801055900       21.9762963000
  H        21.1823251300       18.2129726000       21.0040211700
  H        20.2045900800       17.2739325600       19.6674341400
  H        21.0445749000       16.0522159300       20.0189356700
  H        17.6859706700       15.6102911900       21.2412573200
  H        17.3854424400       17.0294386200       20.8515094400
  H        22.4470254600       19.8973136400       19.6602671000
  H        23.1141375300       20.9122735200       18.7211084400
  H        18.4028762100       20.9844504300       21.3898946600
  O        17.5066086700       20.5599069300       21.4843847300
  O        20.5240716200       20.0274226700       17.3235623600
  O        19.0909424900       17.8978549400       18.5805777900
  O        23.4743795300       22.5761947900       18.6996565700
  O        16.6640155200       18.4416236600       19.8722394200
  O        21.2066669100       24.0573390400       19.8060647600
  O        19.2560409100       18.7095466400       23.3394801900
  O        20.2895066600       21.5492103600       20.5245444900
  O        21.3282235900       19.2234317900       21.3486004100
  O        21.0263654100       17.0214570600       20.1295393200
  O        18.0108004700       16.5049196400       21.3717510700
  O        22.8170679200       19.9333885900       18.7148545300
      36
 i =        1, time =        0.000, E =      -206.6007416074
  H        16.6354390100       20.5346939100       21.8469085400
  H        20.5341451100       18.6697730700       18.9842062000
  H        21.6990563200       19.8032168100       19.5125931100
  H        19.1247279500       16.7448367100       18.0894503000
  H        18.1728424300       17.8063389000       19.1019400300
  H        24.6441263200       23.4227954200       18.6292316600
  H        23.3524242700       22.9043950700       17.9150879500
  H        16.8296165700       19.2711492400       20.0551400700
  H        16.8689878200       17.8277305300       20.6223709800
  H        21.0375159000       22.8884769700       16.9179278400
  H        21.1871663800       22.5215062200       18.3302473500
  H        19.1393541100       19.8055561400       21.2953557600
  H        19.8714134300       19.2399374800       22.6607162800
  H        20.1484784900       20.8616639800       19.2858646800
  H        20.1541982700       21.9509902200       20.4719889600
  H        21.3431806500       18.8120845700       21.2843994200
  H        21.3216404100       17.4186903100       21.9107463300
  H        20.3408247100       16.5796248700       19.9069330600
  H        20.8701721500       15.0911181100       20.2520986000
  H        17.7854833400       18.9795825600       22.4306440100
  H        17.1244955400       18.2352431100       23.4730146000
  H        23.6754113600       20.4397873900       20.1181258300
  H        23.7790687900       20.8264383100       18.6656428100
  H        17.5006501400       21.2800481500       20.7030856700
  O        16.5834515100       20.8625374500       20.8905814500
  O        20.7993841100       19.3699942800       19.6362070800
  O        19.1720553500       17.5301039800       18.6775731200
  O        24.2782555600       22.5949136000       18.1698078700
  O        16.9998837100       18.3440437500       19.7832324700
  O        21.5275402000       23.1771626800       17.7177626400
  O        19.1535804700       19.8698116400       22.2609003600
  O        19.9294825400       21.7487655200       19.5412477900
  O        21.3501351200       18.3889032500       22.1911459100
  O        21.0641123100       16.0412984300       20.4574229200
  O        16.9329860800       18.5230072700       22.5834031100
  O        23.2934694700       20.1493084800       19.2136642500
      36
 i =        1, time =        0.000, E =      -206.6176636825
  H        17.2512493900       21.1832598700       19.3557779200
  H        19.8060668100       19.1803786400       17.0471031800
  H        21.0823848500       19.7675736200       17.7704418100
  H        19.3921941900       15.8724820000       19.5496784200
  H        18.3432878400       16.9948760200       20.2817905300
  H        23.9699316800       22.7863565300       17.4512511300
  H        23.0512202000       22.6532807900       18.7784016600
  H        16.7945155000       18.9859022800       20.3999314100
  H        17.1928816900       18.3447526800       21.6609604700
  H        20.4660154400       22.5461495500       19.1479577200
  H        20.9374467500       23.8790292300       19.7411354300
  H        20.7467810700       19.8098531700       21.2195112100
  H        20.9258658500       21.2431888400       21.8403336700
  H        19.3370260500       20.7914350600       18.6938359700
  H        19.3653833900       21.1760769900       20.2886144000
  H        22.8811860800       18.7517902900       21.1518809600
  H        21.9022389300       17.6724755300       20.6962764800
  H        20.2802859600       16.5251496200       21.2034271400
  H        21.3162539300       16.2116144200       22.4274974000
  H        18.3416173100       20.3782217500       22.5799060000
  H        18.4844062000       19.7677769000       23.9405193000
  H        22.7419425600       19.2660009500       18.9250685500
  H        23.3791683500       20.4032602500       18.0139243400
  H        16.4197040700       21.1312492300       20.6058026500
  O        16.4880000700       20.6387745200       19.7673196300
  O        20.0973881200       19.7668627300       17.7978873700
  O        18.9433254200       16.1579457900       20.3696345700
  O        23.7607521600       22.2170280600       18.2486923900
  O        17.0569916900       18.0807244300       20.7590327400
  O        21.1513445800       22.9345739100       19.7452670500
  O        20.2729194800       20.4738600000       21.8109545100
  O        19.0432437500       21.5342803500       19.3976448500
  O        22.2917466400       18.5529404000       20.4352693100
  O        21.2380470400       16.5469948600       21.5316246300
  O        17.7962475000       19.9252213500       23.2382507600
  O        22.8644009900       19.5560237200       18.0020095000
      36
 i =        1, time =        0.000, E =      -206.6279979968
  H        16.3749165300       21.7200036200       20.8119221500
  H        19.7514652400       18.6275316800       18.2479799500
  H        21.2941932800       19.2270749400       18.1496382600
  H        17.8348814300       16.3195972700       18.2724065100
  H        17.5190853300       17.7077679300       18.9291542300
  H        23.9774525900       22.4148804900       20.0145117500
  H        22.4171884600       22.4411667100       19.7416295500
  H        16.2112751400       19.5860359000       19.8268320300
  H        15.4268875900       18.2894141500       20.3545124600
  H        20.6474206200       22.7415484800       19.1002756000
  H        21.6230062500       22.5609805300       17.7726134200
  H        22.0922290000       19.4185917200       21.8488738800
  H        22.2723437300       20.9878589800       21.6613299300
  H        19.7026761300       20.6024633900       19.2226496700
  H        20.3097834300       21.3378505500       20.3799086700
  H        22.6231099100       16.8751291000       21.9739113700
  H        21.2791057500       17.3450526900       21.2297373400
  H        18.9616597200       17.0009963700       20.4004766400
  H        19.2783226100       17.9986860400       21.6132397500
  H        18.7537335500       20.1848739100       21.7067054400
  H        20.1216299200       19.6245995800       22.2284549000
  H        23.0108083300       18.7479798000       19.6692056500
  H        23.3372247400       20.2718786800       19.2491376300
  H        17.7160606300       21.4750416600       20.1937297200
  O        16.8054186300       21.0488480400       20.2821558700
  O        20.3233868600       19.4272996000       18.0506733400
  O        18.2584709800       17.1001835800       18.7688472300
  O        23.0985581100       21.9779643900       20.3439830600
  O        15.9539073100       18.6479915900       19.6350679200
  O        21.5007847300       23.0361389700       18.6491489800
  O        21.6314693900       20.2796017600       21.9075751700
  O        19.5169352800       21.3950785300       19.8156796500
  O        22.2137620600       17.6478809500       21.4953026800
  O        19.6170990100       17.1135860400       21.1920871900
  O        19.1960379000       19.4232593300       22.1024556600
  O        23.0065579800       19.4017577100       18.8714593200
      36
 i =        1, time =        0.000, E =      -206.6148548806
  H        16.8465909800       21.7036376100       19.4085161000
  H        19.2200640100       18.8537201800       18.5636938300
  H        20.6396446400       19.5314345400       18.3076853300
  H        16.7701036100       17.8634588100       18.1591756100
  H        16.9737633100       17.6362515400       19.7429366500
  H        23.9485723900       22.0443056700       17.9731452400
  H        22.5780609100       22.3046169700       18.5246006600
  H        16.6843077600       16.9706612200       22.2691450500
  H        17.1324093200       18.5732660900       22.0589338400
  H        20.6711417900       22.8399280100       20.2535416000
  H        20.2398006100       23.9331726400       19.2574523200
  H        22.8339242700       18.8168950900       21.0944095100
  H        23.4279440700       20.2047182100       21.5964213700
  H        19.9989946700       20.5196534800       19.8498009400
  H        21.0635669500       20.5379844000       21.0382983800
  H        22.7913608600       16.2037512600       20.3593844400
  H        21.5707970500       17.1683418800       20.4523051600
  H        19.4610016300       16.8972395100       19.6026224000
  H        18.9402582200       17.4195756800       20.8126924500
  H        18.5939494500       20.3413314000       22.0073472800
  H        17.1254461800       20.7502618100       21.8280235200
  H        22.5384239900       19.0406028300       19.2934232700
  H        22.7710177400       20.2201522000       18.2921151900
  H        18.1808027000       21.5430186000       20.2082989300
  O        17.2862624000       21.9784932800       20.2502746900
  O        19.6927269200       19.7195838600       18.4633587200
  O        17.4142345800       17.9084156000       18.8956345700
  O        23.3201931100       21.6322499100       18.6266287800
  O        17.0306178500       17.6221996900       21.6251081700
  O        21.0662833800       23.5542085200       19.6528433600
  O        22.5740848200       19.7201443300       21.4977140500
  O        20.2348280400       21.0399442600       20.7135620100
  O        22.5582170300       17.1287584200       20.3578777000
  O        19.7930501100       17.0042959600       20.5006180100
  O        17.7381414400       20.0419405500       22.2731178900
  O        22.5104289300       19.2494708700       18.3613312700
      36
 i =        1, time =        0.000, E =      -206.6307297213
  H        17.0526840500       21.8626989500       20.7664838500
  H        19.4280244600       18.8217324400       18.0878642600
  H        20.8557886300       18.9989528200       18.2376634300
  H        17.4905825000       17.7695834700       18.0814817200
  H        17.1531884800       18.2214450500       19.5596199900
  H        24.7942094900       22.2072405300       18.5715295900
  H        23.2820718900       21.7620672200       18.4007965400
  H        16.4239577100       19.8755807200       20.3199242400
  H        16.9000010900       18.9586407400       21.5505550000
  H        21.0058907000       22.3142208700       18.7562229900
  H        21.2569967900       22.9084076800       17.3421583400
  H        20.9397573000       20.0717917600       22.0516316100
  H        20.6679392000       21.4086128000       22.7951538500
  H        19.9820138400       20.6073595700       19.0204587700
  H        20.0678817500       21.0341656400       20.5803886300
  H        22.5067035300       18.7513755200       20.9200523100
  H        21.0881875900       18.0975531200       21.1102427900
  H        19.0944232700       16.8488712900       20.1922596600
  H        19.8799607200       15.7354332400       21.0671605000
  H        18.6063470500       17.6017867300       22.4340206400
  H        19.0621880500       19.1034627300       22.7932913200
  H        24.8116160900       18.2535243600       19.9697114600
  H        24.2708809600       19.6644934000       19.5450042200
  H        18.0072015800       21.3037840600       19.6420512900
  O        17.0215715500       21.4724723800       19.8319912200
  O        20.0807062400       19.4894713200       17.8540502500
  O        17.9141273500       17.9421335400       18.9350333100
  O        24.2211742700       21.4489801400       18.7152844300
  O        16.2947931600       18.9538239800       20.7085803700
  O        21.7020172600       22.5021769900       18.0931571500
  O        20.2130920800       20.5993641800       22.4877786700
  O        19.8896175900       21.3992086100       19.6848683600
  O        21.6313732000       18.8367989300       21.4228046300
  O        19.8639387200       16.6363640200       20.7378943200
  O        18.1813447000       18.5115626200       22.7302707400
  O        23.9768256000       18.7906648000       19.9633217200
      36
 i =        1, time =        0.000, E =      -206.6120444129
  H        16.1852206500       21.8710701600       19.4041536000
  H        19.6196384900       19.1096291000       17.8067202000
  H        21.1565421400       19.3777581200       17.9976836200
  H        17.7037952500       18.3177430100       19.5373339800
  H        17.6243251900       17.4853370000       18.2102478000
  H        23.6598497700       20.3747419600       20.0833607700
  H        23.0978593600       21.8666588200       20.3847065200
  H        16.3973534200       19.4571951400       20.5248116300
  H        17.2125730800       18.5949600600       21.5882985500
  H        21.0591161100       22.8550560900       19.7275551300
  H        21.1824934100       24.2749981100       19.3651076200
  H        20.9121849300       21.3040665800       22.7855661800
  H        21.2643167400       20.1551205500       21.9023668400
  H        19.7903710800       21.0146160400       18.7607676900
  H        19.7863392100       20.9422134300       20.2601774600
  H        22.1224881300       16.6883776200       20.3200865600
  H        23.0670320700       17.5802876600       20.9342447900
  H        19.6146549100       17.0556066000       19.9491697400
  H        19.6965870500       15.6420421700       20.8397942200
  H        17.5938587800       20.6559193200       23.1363767500
  H        18.8124390400       19.8641901800       22.7027313100
  H        23.1695122200       18.3438102100       18.8418943400
  H        23.8546744800       19.2494318900       17.7917246500
  H        17.5221031400       21.1990967000       19.5723271900
  O        16.5645840400       21.0144709200       19.5672585100
  O        20.3463626600       19.7427293000       17.6456881600
  O        18.2507498200       18.0156689100       18.7398313900
  O        23.3020349800       20.9901915300       20.7714381600
  O        16.7815336500       18.5243837500       20.7449859100
  O        21.7433860100       23.5188423400       19.7353781100
  O        20.4993097600       20.7781188700       22.0502907800
  O        19.3106083200       21.4620232600       19.5334919300
  O        23.0182396600       17.0298694100       20.1419821000
  O        20.2057180100       16.4607477300       20.5259582400
  O        17.8974835000       19.7348219500       23.1098118300
  O        23.2295408000       19.2420293200       18.5591342800
      36
 i =        1, time =        0.000, E =      -206.6243311068
  H        17.7715519600       21.7053609200       18.5163106900
  H        19.1956495500       19.2705750600       18.7602853100
  H        20.7771644200       19.3466918000       18.9609411400
  H        18.0281383600       16.3984009800       18.4979257500
  H        17.6837993800       17.6929543600       19.3741532800
  H        24.2808285900       21.4723591300       17.0956713400
  H        23.2477996800       22.1241000700       18.1435876500
  H        16.7240283800       18.6357151400       20.7382843000
  H        16.6811631700       19.7637508100       19.6331818100
  H        21.4394814900       22.6382415700       19.4534571100
  H        22.6036014400       22.8668528600       20.4613947900
  H        20.4344374100       19.8271528000       21.2795899400
  H        21.1532826700       19.2141843700       22.4162913200
  H        19.8053634500       21.2978178500       19.8891447600
  H        20.0290243200       21.9505034500       21.2305584900
  H        23.2391752000       18.0064301100       22.3165724300
  H        22.0544730100       17.5145685300       21.4548954700
  H        19.9725272800       16.5511263700       20.9209136200
  H        20.7846357500       17.0090729500       19.7278453200
  H        18.3721089300       19.4358280700       22.2803028900
  H        17.5049528100       18.7375714700       23.3598264900
  H        22.8318911500       19.1576578900       19.9209989800
  H        22.7581505200       19.9522664900       18.5322908400
  H        17.5638403000       22.2392784500       19.9140893500
  O        17.1677593100       21.6135869300       19.2740635100
  O        19.9032963600       19.7903350500       19.1891960300
  O        18.3484904000       16.9568727600       19.2540723000
  O        23.4230099800       21.3707028100       17.5701418100
  O        16.4415539000       18.8209747600       19.8049215400
  O        22.3478396700       22.9489354900       19.5132698900
  O        20.2989302100       19.6888690000       22.2492842800
  O        19.8217583900       22.2452192200       20.3200125900
  O        22.5032279400       18.3030901800       21.8156996700
  O        20.8981206100       16.4982507700       20.5584707100
  O        17.4193297800       19.1990000500       22.5029735900
  O        22.3978238800       19.1077643900       19.0447094500
      36
 i =        1, time =        0.000, E =      -206.6202505666
  H        17.6075475900       22.7281203100       18.2854749400
  H        20.0187315100       18.0352475900       18.3478984600
  H        21.4821010100       18.6386902600       18.2423472900
  H        19.2227067000       15.7229713900       19.3457838900
  H        18.1857716500       17.0324105900       19.5010068900
  H        21.5091662200       22.6523497200       20.6115276700
  H        22.8579245300       22.1649374500       21.3094444400
  H        16.1787081700       17.2188446200       20.1215708600
  H        16.8081415400       18.7928083500       20.1524926300
  H        19.5874947300       23.5965129100       20.1277571100
  H        20.3221642200       24.3195147100       21.2007719100
  H        20.3401038700       19.4144655500       21.8544258800
  H        20.7123611900       20.9400070700       21.7205384400
  H        20.1995934600       20.1868296000       18.4103534500
  H        21.0087404900       21.3183687500       19.0956982500
  H        23.3386437700       17.9735161500       21.8750430800
  H        22.5201286900       17.0520157400       21.0410211900
  H        19.7909205500       17.0982920100       20.8188786100
  H        19.9169236900       17.2000438700       22.5166984600
  H        18.2575192100       20.2155378200       21.5546766600
  H        17.4249708000       20.9307726400       20.4492047500
  H        23.4231966500       18.5268592100       19.5217640800
  H        23.0417668600       19.9687191200       19.4777929900
  H        18.7115202500       21.9320391700       19.0611842100
  O        17.7092281600       22.2687939000       19.1391102800
  O        20.5687679200       18.6896770900       17.8777574900
  O        19.1517573200       16.6936751800       19.3587738300
  O        22.0961380600       21.7884125300       20.8003547200
  O        16.6899542000       17.9188203200       19.6341913900
  O        20.4991713200       23.7970753100       20.4043932600
  O        20.0893483500       20.3065576200       22.1694210400
  O        20.1220894100       21.0109320900       19.0001870300
  O        23.4145992400       17.4658148200       21.0174796400
  O        20.4123858200       17.2922090300       21.6283137800
  O        17.3923956900       20.0779805000       21.0235328400
  O        22.9809386500       19.1800106500       18.9321079900
      36
 i =        1, time =        0.000, E =      -206.6083217735
  H        17.2718050300       23.8403748200       19.8198301600
  H        19.7800447300       18.7741178800       19.3188008300
  H        21.3347146400       19.1506926000       19.5761051300
  H        18.1349238900       16.6395433400       17.9604172500
  H        17.7355544400       17.3686232900       19.2853940000
  H        23.4467544000       21.3569138700       17.6445645000
  H        24.9325821900       21.6018175300       17.9754271600
  H        16.3566341500       18.6009324300       21.3049149100
  H        16.9822367500       19.6971342900       20.3584815000
  H        20.7694453200       21.7300443100       16.8951741400
  H        21.5112271300       20.4874406900       17.4352613400
  H        20.1854409400       17.4918311700       21.9449957900
  H        20.0727716600       19.0710067800       21.7483090200
  H        20.1685040200       21.2586774500       19.3478516000
  H        20.6211654800       22.7382813500       19.4545270500
  H        21.8823437000       18.5213725200       22.4121397400
  H        23.0353815000       17.5697989400       22.4755408000
  H        19.4566352000       16.4990832500       20.0693578300
  H        19.7969028200       15.2390620800       20.9008259500
  H        16.5128490100       22.0693947900       23.2603034300
  H        17.0608908400       22.3762159700       21.8421338800
  H        23.1636763600       18.7445691300       20.3705274300
  H        23.4528415900       19.7633520400       19.2356219500
  H        18.3708813900       22.8120556200       20.0409868400
  O        17.5874541500       23.2124848500       20.4735728700
  O        20.3701057200       19.5096047700       19.5848687900
  O        18.2859621000       16.6267852800       18.9068477300
  O        24.0938768900       21.2613936700       18.3386669000
  O        16.6126991600       18.7885690200       20.3638737000
  O        21.6770877100       21.2911765800       16.8564857700
  O        20.1547967600       18.3546198600       22.4701976800
  O        19.8211579600       22.1973494100       19.2669164500
  O        22.8965968000       18.5311103500       22.1992808400
  O        19.9937496400       16.2166006900       20.9067356000
  O        16.6861388600       21.5867807300       22.4373891000
  O        22.9742804400       18.9297097600       19.4306528900
      36
 i =        1, time =        0.000, E =      -206.6124141216
  H        16.1828523000       21.1051577800       18.6473524500
  H        19.8243130900       17.6829961700       18.9237160900
  H        21.0304244500       17.9430481900       17.7828759300
  H        18.5963892700       15.9631664300       20.0246639000
  H        18.2810816800       17.3632870500       20.5537641700
  H        22.3173313100       22.0672198300       19.9689993100
  H        23.2958221400       22.6733807300       20.9940611700
  H        16.6035023800       18.6481167900       19.8101681700
  H        16.5827342000       18.6069617700       21.3442596800
  H        20.7923367700       22.3625469600       18.3695495000
  H        21.2012801000       23.7926287700       17.7627102300
  H        20.0076517100       19.9956337000       21.6396986500
  H        20.5298966700       21.3133697500       21.2845645900
  H        19.6361878700       20.1080031600       18.0149507200
  H        19.2287403200       20.8408329600       19.2355135100