      24
 i =        1, time =        0.000, E =      -137.7304054216
  H        19.1986015300       23.0282184400       21.1513214400
  H        18.5275237700       21.5821914400       19.0453406500
  H        18.2828669300       21.5470984400       17.5281744200
  H        17.0679078300       19.1917410900       21.2207691800
  H        16.6592147800       17.7849518200       21.3120904400
  H        21.4891739000       19.0110435400       22.0148836400
  H        22.9329309500       19.6317388700       22.0389678900
  H        16.7612954200       21.4183343700       22.1182005700
  H        17.7189682000       20.6056513300       22.9308712300
  H        19.2281565300       19.6852485100       18.4213425700
  H        18.6304070900       18.1207424000       18.5288337900
  H        18.9526010200       18.0841184200       21.3355906600
  H        19.9665381600       18.4239924200       20.3625691400
  H        20.3338745100       20.6825511200       23.3486856900
  H        19.5647864800       19.4821470200       22.7864141700
  H        19.3430462700       21.4499039300       21.4515432500
  O        18.9444655300       22.0884702300       20.8739219200
  O        18.2688057100       21.0059935400       18.3341987700
  O        17.2186529100       18.3306075800       20.7593447600
  O        22.1107524600       19.5083541200       22.5519798900
  O        16.7708983800       20.5956372500       22.5884729100
  O        19.4955329500       18.6313477500       18.6340219600
  O        19.9791133300       18.1787110000       21.3314264700
  O        19.4377065800       20.3995493400       23.1093548200
      24
 i =        1, time =        0.000, E =      -137.7313977879
  H        18.0706913300       21.7643517500       22.6307976900
  H        16.2588784500       19.8798058100       19.3688876900
  H        17.1159161800       19.1829194300       20.4545407700
  H        16.7330265200       17.2062651700       21.4542231900
  H        17.2110286900       18.3790218600       22.2031056500
  H        22.0006528500       22.8325589600       18.8956815900
  H        20.8864213300       21.9163279800       19.4708844200
  H        17.7907614500       19.6492770300       23.6073893800
  H        17.3998117300       18.3642943600       24.3702110900
  H        20.0250479600       19.4029025000       18.5194801000
  H        18.7134225000       20.1076248000       18.9797170900
  H        19.5052091500       17.0368886500       19.4293973800
  H        19.6889339000       17.7639651900       20.7775007900
  H        21.5866716200       21.2417893600       21.5275947000
  H        20.7352091100       20.1106947200       20.9780757400
  H        19.3400253300       20.8042999900       22.5866508200
  O        18.5621171500       21.0112576200       23.0966506200
  O        16.9750330800       20.0765342700       20.0153268100
  O        17.4848244100       17.8218983100       21.3860232900
  O        21.5971644200       22.5618087500       19.7608171000
  O        17.0668942500       18.9585674800       23.6664023900
  O        19.6142136800       20.3228773800       18.6241509400
  O        20.1505866300       17.6579213100       19.8552579100
  O        20.8756601800       20.5852829600       21.7996057800
      24
 i =        1, time =        0.000, E =      -137.7191321380
  H        16.9809913200       22.6983398200       21.6148397000
  H        19.0387263000       19.6509704200       21.0787292300
  H        17.9444908300       18.7334268100       20.3796256300
  H        15.4060577000       18.4773776800       20.5301220500
  H        15.9659103100       18.7885217000       21.9362243700
  H        20.2669828700       19.9680749800       19.5725463000
  H        21.5453891000       19.4739358400       19.1508347300
  H        16.0287509600       20.8545271200       22.9791130900
  H        14.7158244800       20.4776090900       23.7219280900
  H        22.4430124800       17.5573281700       17.6422974200
  H        21.0827787800       18.3789450200       17.4512014100
  H        21.0451332200       18.6278664500       21.6974422400
  H        22.0354885900       19.0105402200       22.8271113700
  H        20.7055849300       21.5546054900       20.5627068600
  H        20.5150290400       21.0695463600       21.9959608400
  H        18.3494586800       22.0434036500       21.9957063700
  O        17.4341993000       22.1336416000       22.2558668200
  O        18.9495960000       18.8931895700       20.4348947500
  O        16.2924130800       18.5326769400       21.0029354700
  O        21.1507173900       20.3513513900       19.3979806500
  O        15.4423647000       20.1188710300       23.1475787700
  O        21.6842476900       17.8720722500       18.0863379100
  O        21.1086076400       19.1935242700       22.4912871200
  O        20.2008462500       21.7923262700       21.3947719500
      24
 i =        1, time =        0.000, E =      -137.7331414229
  H        17.3838457200       21.3191049500       22.3221061700
  H        18.1052312900       21.2705990600       19.6190700300
  H        17.6718562800       19.9465977000       18.9657583700
  H        16.3149769100       18.5658892700       18.5791373600
  H        16.0904983900       18.7323764600       20.1294168000
  H        23.0184244800       20.9850928700       21.4121012200
  H        21.7393236500       20.5088460600       20.6148064900
  H        17.1483759700       19.1454008800       21.9579552800
  H        17.1203696100       17.6638484100       21.7764619600
  H        20.9387551800       18.7420145500       18.9755390800
  H        19.9068954900       19.8284897900       19.6463080800
  H        19.9388161000       17.9129492000       22.8283805200
  H        20.3646556000       18.2254794600       21.3400571300
  H        21.2424294300       21.3423943500       22.5962007100
  H        20.2248985900       20.2845456700       23.0115356000
  H        18.8589041900       21.1074929100       22.3431035600
  O        18.0569176200       20.7720415700       21.9143641900
  O        18.4363265200       20.5832872300       18.9955009000
  O        16.0469918700       19.1752372400       19.2456437600
  O        22.1183936300       21.3138364200       21.1700416200
  O        16.5311885200       18.3764654100       21.7750726900
  O        20.7943325900       19.3214498700       19.7429219800
  O        19.6243099000       18.3151999900       22.0108440700
  O        20.5286087500       21.1425281700       23.2954228300
      24
 i =        1, time =        0.000, E =      -137.7255536363
  H        18.2112043700       22.4176019200       20.0011251200
  H        18.2783418500       19.8314876600       19.6919054500
  H        17.6571660300       18.4607083700       19.8885205000
  H        16.9632939000       17.2964360100       22.7729070800
  H        16.7719223000       18.6553121000       21.9738076400
  H        20.3133640800       21.5360787000       19.0740407800
  H        21.4594442700       20.7184319000       19.4286813700
  H        16.6758205900       21.0744536400       21.3207723600
  H        15.2639185500       20.6904257700       21.6316163700
  H        20.7605018200       18.6158279800       21.0563750200
  H        20.6122054700       18.7725300700       19.4218987500
  H        18.9634370800       17.9056427400       22.3542436900
  H        20.2097016300       18.1812324800       23.2445559500
  H        20.6955267000       22.1504310600       22.5567206600
  H        20.6941444300       20.8180043000       21.9789598500
  H        18.6442768800       21.5251203800       21.1365071600
  O        18.0304341600       21.5453483800       20.3274485500
  O        18.3657887700       18.9269105600       19.3820249000
  O        17.3834086800       17.8687104400       22.1108423500
  O        21.2033850600       21.6500511500       19.4390121600
  O        16.1896552100       20.3836848800       21.8681625300
  O        21.1727525000       19.0134438500       20.2135968300
  O        19.9911235500       18.0148054500       22.3005475500
  O        20.0458579600       21.4037570700       22.4190455500
      24
 i =        1, time =        0.000, E =      -137.7275292360
  H        17.7469164100       21.3488537400       20.1443016800
  H        19.5202110200       16.9441764900       19.0174423300
  H        19.1896210200       17.9466602300       20.2580034000
  H        18.0141043400       17.5065285400       22.2376398100
  H        17.9327250200       19.0055410500       21.9395610300
  H        20.0230228100       22.4817046300       20.2658884000
  H        19.7702631500       21.1286118200       19.3994799900
  H        17.6933382300       20.2918935000       23.2524189100
  H        17.0631493200       20.8394961900       21.9694081500
  H        20.1299800600       19.9402642000       17.2763908600
  H        19.6446334800       19.2974047500       18.4657886700
  H        20.9068889400       19.0198597500       21.9978864800
  H        21.0495654700       17.8134550400       22.8824925600
  H        20.1651788700       20.2886953200       23.2452298300
  H        19.7218989500       21.4952583500       22.4555554100
  H        16.7436264800       20.7724687000       19.2028813500
  O        16.8240560400       21.1693612200       20.0568363900
  O        19.4539056000       17.8762139300       19.2718639900
  O        18.5963841900       18.1728506100       21.7794637700
  O        19.5854098300       21.5870773300       20.2405400600
  O        17.0198420900       20.0325181100       22.5954285000
  O        19.7070552900       20.1949109200       18.0812111900
  O        21.2701419600       18.7777766500       22.9037106700
  O        19.7277247400       21.1553307100       23.3535426400
      24
 i =        1, time =        0.000, E =      -137.7412750549
  H        16.9752831500       22.1197693400       21.1867719800
  H        17.9073128800       20.2371524500       19.6355416800
  H        17.8361947600       18.6272201500       19.2583720300
  H        16.8969560200       16.7961919200       20.5141283100
  H        17.1950565900       17.9071800400       21.6796261900
  H        21.4077588300       22.7155815400       19.4413367200
  H        21.0986630400       21.2196065100       19.6392523200
  H        16.8517141400       18.9389064200       24.0133099600
  H        17.1884214000       19.9485308300       22.7961823700
  H        21.0856249800       19.2367937500       18.5752013400
  H        19.5486896400       19.4842842900       18.9718445100
  H        19.5352514100       18.5892247000       22.8590802000
  H        20.1634360100       18.3997635700       21.4878649400
  H        20.2686166000       21.8624580100       21.5838769900
  H        20.1892599100       20.4168478100       22.3833459700
  H        18.4418230800       21.3461017200       21.5907857200
  O        17.3912864900       21.2194935200       21.2983577800
  O        17.8251335600       19.5659390100       18.9175819600
  O        17.5484760200       17.5246747600       20.7890841900
  O        21.5948552400       21.9561461900       20.0633810100
  O        17.3163872900       19.0388371700       23.1334231500
  O        20.4982101100       19.6013794500       19.3015255400
  O        20.4399264400       18.6387140800       22.4339484600
  O        19.7419341900       21.3121898400       22.2441011900
      24
 i =        1, time =        0.000, E =      -137.7319509644
  H        18.6258046000       21.3398615300       22.5430129800
  H        17.7778704400       21.2446010400       19.4718940800
  H        17.7296286500       19.7537657300       19.5454983700
  H        16.3551618000       17.6108590100       19.9771794000
  H        16.3890586000       18.5960152200       21.2291986300
  H        20.0884296200       21.1927308100       19.3970227100
  H        21.4607583900       20.5962566800       19.3701428000
  H        16.8670921300       20.1670058500       23.3049218200
  H        15.6133454500       19.4416434600       23.9035340700
  H        21.6535374600       18.9337118900       18.5316385800
  H        21.3550385000       18.3723631500       20.0688841200
  H        19.9707953500       18.9490754800       21.3151776400
  H        19.4405850400       17.5068278600       20.9485108300
  H        20.5095679800       20.9735061000       21.2066934900
  H        20.7537109400       20.7518605700       22.7352010200
  H        17.1126501600       21.9054716600       22.2540737700
  O        17.7511778300       21.6560542800       22.9469851800
  O        18.3572181900       20.4664733100       19.3658254700
  O        16.7296813400       18.5451142100       20.2738894100
  O        20.9961613800       21.4078846400       19.7319495900
  O        16.2720591200       19.3568578500       23.1518040800
  O        21.9373107200       18.9269428300       19.4191066100
  O        20.2641279500       17.9846090700       21.1835698000
  O        20.1043590200       20.5455734200       22.0965504700
      24
 i =        1, time =        0.000, E =      -137.7179075956
  H        20.0112581600       21.8884338600       21.0342864200
  H        19.4585453300       18.5566281600       20.0328401400
  H        20.1090580200       18.5684687300       18.7015752400
  H        15.5308147900       19.7795547600       21.0872413000
  H        16.6439404900       20.6171771700       21.6251278700
  H        22.0405865600       19.6373202400       21.4928039500
  H        20.8193536100       19.9095016300       20.5312780900
  H        16.9294244100       22.7407213200       22.4107384400
  H        17.9222050900       22.3419588700       21.3696941400
  H        20.8933300000       16.5584592500       17.6383714600
  H        19.2764513900       16.5238235000       17.8065957400
  H        17.8889986000       18.4127497500       21.4246452900
  H        18.1331905500       17.0897058000       22.0404045000
  H        19.9417871900       20.0399318900       24.3214571900
  H        19.1557063700       19.3448659300       23.1030415800
  H        19.8114729800       21.8270327400       22.4999507600
  O        19.5145811000       22.3646430700       21.7513263600
  O        19.7456157300       19.2137284400       19.3235119400
  O        16.4780812000       19.6794080000       21.4089395800
  O        21.5140600900       20.3693649600       21.1508170900
  O        16.9048706500       22.3656686300       21.5144237600
  O        20.0916526900       17.0560950100       17.5821428600
  O        18.6541767500       17.8276440000       21.7850295000
  O        19.3286714800       20.2334222900       23.5704838200
      24
 i =        1, time =        0.000, E =      -137.7266424553
  H        17.7890564200       21.7670809400       19.1849123200
  H        17.9960695300       19.3776295500       19.5975695800
  H        17.2836135000       19.2702627300       21.0179330900
  H        15.5244643000       20.4980906100       21.9907693100
  H        16.9523717700       20.2699510100       22.8397491500
  H        21.7094725700       19.4131071400       19.2570305300
  H        20.6566555400       18.4061376200       19.8021496100
  H        18.6502531400       19.4083599600       24.1050053700
  H        18.4535415800       20.9473992300       24.0248504700
  H        19.7402741000       20.4428504000       18.0743941400
  H        19.9385956500       19.3045638700       17.1105466500
  H        20.6364214200       18.7845547000       22.0565829900
  H        19.3067020400       17.9396805500       21.9603115000
  H        20.4969141000       21.3514465100       22.0083981900
  H        19.4053664300       20.1866938900       21.9451873300
  H        18.8345268900       21.2470082200       20.4061041200
  O        18.5199313700       21.1749871400       19.4087421100
  O        17.9280434700       18.7438105800       20.3413022200
  O        16.5625601400       20.4979374100       21.9521187700
  O        21.5113041200       18.7938908500       20.0451648600
  O        17.9348298500       20.1213080000       24.2108778300
  O        20.4620111300       19.8387009300       17.7384039000
  O        19.8587905700       18.4581071600       22.5697124000
  O        19.5293287100       21.1801690200       21.9298888400
      24
 i =        1, time =        0.000, E =      -137.7341514643
  H        17.6388949800       22.5404772200       21.1160973900
  H        18.1415517000       19.8963194200       19.8512620000
  H        17.3297699000       18.4751244600       19.7551283800
  H        15.6739966800       18.4277583900       21.1357465900
  H        15.7823481200       16.9887324400       21.2581585600
  H        20.8668512700       21.6351173200       21.5571492900
  H        20.8965476100       21.6663641000       19.9078064300
  H        16.0181782100       20.4156306600       22.3503864700
  H        16.5625577200       19.5141201400       23.4322704200
  H        21.5141609900       19.8442067400       18.7560976600
  H        22.1770317900       19.7278342500       20.0735817900
  H        19.6650815400       18.6117861400       20.6123857700
  H        20.6390356000       17.5380545200       20.8605706800
  H        20.9013697300       19.5270198300       22.4671989600
  H        22.0067669500       20.4010824400       23.2330723700
  H        18.9623210600       21.6658307400       20.9272029000
  O        17.9169743100       21.5777254700       21.0853564100
  O        18.2332932800       18.9440966000       19.6139552900
  O        15.9425956300       17.6584555600       20.5661773300
  O        20.3800038600       22.0077189500       20.7291012000
  O        15.8157699300       19.5743086000       22.8162627500
  O        22.2766786900       20.2550676600       19.2656109000
  O        20.5776597900       18.4813736500       21.0361842800
  O        21.0754819500       20.4197510700       22.9630600900
      24
 i =        1, time =        0.000, E =      -137.7460024870
  H        18.2452694000       22.2595492800       20.0468057600
  H        18.8764470000       19.6945465500       20.1002676800
  H        18.3354266600       18.3608128200       19.4242071600
  H        16.2265190300       18.9726573900       19.6376915200
  H        16.1110487600       17.6321039800       18.7539454200
  H        22.4534184400       20.3192070700       21.0643889000
  H        22.9824393800       21.6287209800       21.8378130600
  H        15.3732869500       20.5577436900       21.5179781600
  H        16.7835332200       20.5475694200       20.7724247300
  H        21.9861260900       17.8044374000       19.8566094200
  H        20.7557624100       18.3578056900       20.5639819900
  H        18.8977793400       18.7399752600       21.8825269000
  H        18.1063489900       19.1944526600       23.1417461500
  H        20.3528185500       21.6569244500       22.4163270900
  H        19.3132838000       20.8092976000       23.0199128800
  H        18.7176929000       21.4988562900       21.3735055200
  O        18.1537273800       21.3438206200       20.4878163000
  O        19.0467885600       18.7182380000       20.0635853800
  O        16.5992086600       18.4883705800       18.8343508600
  O        22.1974087200       21.1896932300       21.4807162500
  O        16.0334436500       19.9100970500       21.0864657900
  O        21.7606236700       18.3762226200       20.6480353200
  O        19.0397139200       19.0902266000       22.8535896600
  O        19.4668813900       21.7287946000       22.7398470400
      24
 i =        1, time =        0.000, E =      -137.7486111548
  H        19.5165647900       22.4888697100       19.5476495300
  H        18.4786579700       20.2757666200       19.0592887100
  H        18.2871189300       19.4407540200       17.7603812700
  H        16.5707057000       19.3692242400       23.1102108800
  H        16.8738850900       20.2648405100       21.6948152700
  H        21.9533527100       19.0758729900       22.4206707400
  H        21.4089071900       18.8857733000       20.9749870700
  H        17.2521886700       21.6371212700       20.3488954200
  H        16.3640467100       20.4723748100       19.7637822800
  H        19.9346334500       17.0343533600       19.7671602700
  H        19.3533808900       18.4100428000       19.6149130500
  H        19.6709440000       17.8976161800       22.2258728700
  H        18.5075682500       18.7827474800       22.7225731200
  H        20.7723954200       20.8107214400       21.8951327900
  H        19.3557528000       20.4923662700       22.4523805400
  H        19.2632689300       21.5245771000       20.8377461700
  O        18.9759287700       21.6855110500       19.8218573400
  O        18.1523930900       19.3573540800       18.7381154300
  O        17.2137606200       19.6814977500       22.4768819200
  O        22.0598072500       19.4393207000       21.5508737100
  O        16.4451609600       21.0933352000       20.5305236700
  O        20.1675960800       17.9844068500       20.0418637200
  O        19.3930260700       18.4150846200       23.0140847700
  O        19.8872141800       21.2627708400       22.0966722200
      24
 i =        1, time =        0.000, E =      -137.7391945081
  H        18.7904991100       22.4503663800       21.4423174000
  H        18.9036430700       19.2904681400       19.2427966100
  H        17.7921573900       18.5174451500       19.9570083800
  H        15.3715407500       18.2518626100       20.1215627600
  H        16.1469373200       19.1257146500       21.1778879900
  H        19.4895007700       21.7047863800       18.6962756300
  H        20.6158795600       20.9284885700       19.5770738000
  H        16.9050198000       21.0852585900       22.2434546200
  H        16.0986497700       20.4786733900       23.3703194400
  H        21.6604317300       19.3162415000       20.4600328700
  H        22.9857824100       20.1313176000       19.7201644400
  H        19.8101909200       18.2090317700       20.5964851800
  H        20.5394129100       17.3301273700       21.6558970300
  H        21.0035113700       20.7927165500       22.3148984200
  H        20.2819650600       19.5132498200       22.5509657300
  H        19.1098206700       21.2772052400       22.5156993700
  O        18.3601464200       21.9039946300       22.2567280800
  O        18.6637799200       18.3364697200       19.4702911300
  O        16.2371747500       18.3687851300       20.5335182100
  O        19.6994833800       21.2378302700       19.5375884700
  O        16.1178868600       20.4834207800       22.4165411700
  O        22.0697302800       19.8266118500       19.6301931200
  O        20.5522540700       18.2786281800       21.3038845700
  O        20.4721047200       20.3865187700       23.0310003800
      24
 i =        1, time =        0.000, E =      -137.7248705536
  H        16.5643568300       19.9973247700       18.6677892900
  H        18.8274147800       18.5391196600       20.1900404400
  H        18.7075629800       17.7897466600       21.5086737700
  H        16.5738412700       18.3205640400       22.3727257100
  H        17.5536854800       17.8394701400       23.4539727700
  H        22.2693013300       21.9326489900       18.1790096400
  H        21.1969863300       21.4507586500       19.0720829400
  H        14.7130827200       19.9685036700       22.4049414000
  H        15.4998969500       19.6559078100       21.1198083200
  H        21.9079483700       19.9161451500       20.4575646800
  H        21.2196029700       18.7933053700       21.1194503000
  H        20.9494120200       20.7110495000       22.2053510500
  H        20.9902687200       21.8740944500       23.2280821200
  H        19.3110652600       22.9104431700       20.3579896800
  H        19.6903031400       21.7219900000       21.2755710300
  H        17.5809291600       20.3203977200       19.9061540900
  O        16.7235382700       19.8892410900       19.6545322100
  O        19.3799934800       17.9423321000       20.7772905500
  O        17.1963489000       17.5403451000       22.5598420300
  O        22.1457954200       21.2637456500       18.9573855500
  O        15.0581928500       19.2420512300       21.8978909400
  O        21.9071907600       19.4996602300       21.3267659300
  O        20.3720652400       21.2882305000       22.7194718500
  O        19.5122481000       21.9463138200       20.2943554300
      24
 i =        1, time =        0.000, E =      -137.7331264067
  H        18.6080095700       22.3818798100       21.5531331900
  H        18.3206831000       20.0083990200       20.4550893800
  H        17.6014258700       18.4557829500       20.2574120300
  H        15.1111759900       17.9021960300       20.6245388900
  H        16.0087158300       18.6766925500       21.6004088600
  H        20.9982912200       21.0855684900       19.3484662500
  H        22.1011285200       22.1521811600       19.7735896400
  H        17.2385028800       20.4081734000       22.7050469800
  H        16.6871049700       19.8222953500       24.1278196300
  H        19.4828530400       20.4082728300       17.4855496200
  H        19.3404143000       19.4758960400       18.7236909200
  H        19.7624330300       18.2943068400       20.8013338400
  H        21.2800552400       18.5565226500       20.7838530000
  H        21.3558763400       21.1341649100       21.9426380200
  H        20.7383657500       19.7491888800       22.6649965000
  H        19.3359143400       21.0530944900       22.1844504900
  O        18.4589693900       21.3805864600       21.6561899000
  O        18.3130885100       19.1063649200       20.0034889000
  O        16.0459083000       17.8909139800       21.0164255300
  O        21.4136640200       21.5407096300       20.1447952600
  O        16.5715226500       19.7858340800       23.0994572500
  O        19.9608193200       19.9753188900       18.1954057200
  O        20.5398191300       18.3843919900       21.3615146400
  O        20.9654166800       20.6849501600       22.7409521300
      24
 i =        1, time =        0.000, E =      -137.7431923918
  H        16.8751398300       22.3179861200       21.4210646900
  H        17.4104391300       20.0640224000       20.1338959900
  H        17.7004082800       18.5530048600       20.4920464300
  H        16.8618955600       18.2496256300       22.6563803100
  H        16.0795206700       16.9822386900       22.0096138200
  H        21.9435219200       19.7198941000       21.3476547400
  H        22.7117975700       20.7117342900       20.5256792300
  H        16.1130242600       19.6377626600       24.0417462600
  H        16.8847903900       20.3988282100       22.8474636300
  H        20.1986629100       20.3539088700       17.7694707900
  H        19.1230899500       19.7762876200       18.8768591600
  H        20.9682762800       17.3139831300       20.3563020900
  H        20.5482355700       18.8244566600       19.7606942900
  H        20.6771371000       21.2931326700       21.3350226600
  H        19.8468260500       21.6671862700       20.0812083600
  H        18.4287372400       21.6323355600       21.5364696200
  O        17.3613497500       21.4484911800       21.4390290600
  O        17.7644203100       19.1960689500       19.7107946400
  O        16.9210686600       17.5356605800       21.9648934400
  O        22.3589417500       20.6192939500       21.4291409700
  O        16.9477006800       19.7009089500       23.5790435300
  O        20.0029525100       20.2875463600       18.6989626100
  O        21.1963627800       18.2756629800       20.3371324600
  O        19.8171829800       21.8157436100       21.0491800400
      24
 i =        1, time =        0.000, E =      -137.7439976791
  H        16.9254799000       20.7331152100       19.1054967300
  H        18.6552877500       19.2766268000       19.4998065400
  H        19.1447044800       17.8464572000       19.5145696800
  H        17.6225919800       16.8848498700       22.8213600800
  H        16.9510925300       17.8636444700       21.9547593100
  H        22.3531125200       22.8597862300       20.7620530500
  H        21.9151926000       21.3946142100       20.6183005600
  H        16.1103056600       19.7029599100       21.2871459000
  H        16.2178187600       20.0602749600       22.7629042600
  H        22.5224551800       18.8974227300       20.1517504300
  H        20.9816502500       19.1091815600       19.8197821300
  H        19.9550517400       19.4455036800       21.5069248600
  H        18.8958744900       18.5558355200       22.3233282900
  H        19.9506739100       22.1454154400       21.1950664800
  H        19.1529771400       21.1088244900       22.1315481500
  H        17.8736722000       20.9966483700       20.3096727200
  O        17.3094946300       20.3280148100       19.8521514800
  O        19.3824939900       18.6957747500       19.1810486700
  O        17.7834531200       17.3440850500       21.9890399900
  O        21.5744524200       22.2846584400       20.8355809100
  O        15.9234193000       19.3476943300       22.2219034000
  O        21.7828756800       19.5350445000       20.2165489200
  O        19.3969007300       19.4470717600       22.3599597700
  O        19.0369227100       21.9357946900       21.5158488400
      24
 i =        1, time =        0.000, E =      -137.7243670339
  H        17.1645069500       21.7107294800       20.2878880300
  H        17.7356170800       19.5665987500       19.5598242700
  H        17.3800507900       18.1114276700       19.7044818100
  H        19.0683711900       16.8146971700       21.3205005600
  H        18.0266499100       17.8453167200       22.1858294500
  H        21.9184559600       20.8010023500       20.0917016600
  H        20.5867229200       20.1990907000       19.3466851600
  H        16.9855101400       20.0715290600       22.2076362400
  H        16.2740362900       19.5843852900       23.4997285300