      39
 i =        1, time =        0.000, E =      -223.8565194785
  H        20.7226308200       18.5803813900       18.1577410400
  H        20.5339223800       22.6802749200       21.1285287000
  H        20.2041237000       21.6140403000       20.1667643700
  H        21.6855711200       16.0884234200       22.2696021200
  H        20.3422806900       16.4234105300       21.4698459500
  H        18.8347555200       19.5426989800       26.4991610500
  H        18.9626810500       20.4388380400       25.1401573400
  H        19.5103908300       16.7776316000       19.5430320200
  H        18.6199354200       17.1738445700       20.7350263200
  H        18.8032570500       22.3700092300       24.1590607400
  H        17.7090741600       21.4096478300       23.4946916100
  H        17.8492393300       16.9101461800       24.1027763100
  H        18.0612451100       18.3295052300       24.7716166300
  H        18.4126231300       23.0961465500       20.0902547800
  H        17.0723081500       23.8345321300       19.6282842900
  H        20.9814872000       18.2959563800       23.2359758700
  H        20.4515159500       19.2902446700       24.2606177700
  H        18.4328204800       14.7726994700       23.7594852600
  H        19.6236416400       15.7967811600       23.7125552300
  H        17.6281812100       18.4090090000       22.5996722100
  H        16.5855671900       17.9809686600       21.4493665000
  H        19.1533283600       19.6840754200       21.0468803000
  H        20.3058051700       19.8512295100       22.0293815500
  H        16.6886498600       20.2759703100       21.8741420100
  H        16.8606709700       21.7451076700       21.4796701400
  H        20.7216625700       18.8872632400       19.6841397400
  O        20.4258503000       18.1709406400       19.0103725900
  O        20.1618956100       22.6120683200       20.1857202600
  O        20.7770663600       16.3916126400       22.3507917000
  O        19.1793922000       19.5125087200       25.5559260900
  O        19.0516284500       16.3629215900       20.3127076500
  O        18.4147633200       21.5052688600       24.2488076500
  O        17.5327435100       17.8198463900       24.1201903900
  O        17.4168320700       23.0978570300       20.1222063600
  O        20.9774054900       19.3085434300       23.4351374200
  O        18.9882840000       15.4014875600       24.3544511600
  O        17.4254570400       18.5242924900       21.5195098900
  O        20.0863380400       20.1073490400       21.0646557200
  O        16.7155108900       21.2058945700       22.2564238500
      39
 i =        1, time =        0.000, E =      -223.8469086945
  H        17.5755049500       17.7741685300       20.0257565700
  H        20.1695139500       22.0582368100       20.3456282100
  H        19.9900905600       21.2719988300       18.9514386700
  H        22.2045825600       17.5845871300       23.0443108200
  H        20.7322197900       17.5041762900       22.3167631200
  H        19.6936952500       18.7395901700       24.7229603900
  H        19.3925403000       20.0855652800       23.9705893300
  H        19.6828293300       18.1060141800       20.1427947000
  H        19.3920498600       18.9878915900       21.3697771400
  H        18.1601710100       20.6763803600       25.7668369400
  H        17.3476201900       20.3128593000       24.5974493600
  H        16.8885210200       15.2785019300       23.5976158300
  H        17.5317672700       16.4960824900       24.2809383800
  H        17.8077626100       21.3406469500       19.3881186700
  H        16.6259823000       21.1867786700       18.4927015100
  H        21.7208212100       19.2214913500       21.9203923400
  H        21.2971198200       19.8672020700       23.2359436200
  H        19.2172386900       16.2340588300       25.4714908500
  H        20.1185417700       16.8180311300       24.2208001100
  H        16.6593840400       17.0887712800       22.4101463300
  H        15.7353960900       17.6529224000       21.3150175500
  H        21.7719341700       21.5169538700       21.6608504100
  H        21.7589655200       23.0625254900       21.8230176300
  H        17.3206740400       19.2900838800       22.0574682500
  H        17.7062002200       20.8307175800       21.8137753700
  H        17.6869326800       18.9954162700       19.0699514200
  O        18.0253553800       18.1029343200       19.1733269700
  O        19.4900390400       21.8462736700       19.5998752300
  O        21.2611267200       17.1750915400       23.1044756400
  O        20.0851323200       19.6309713100       24.5359059600
  O        20.1236655100       18.4849835200       20.9256779100
  O        17.4692305800       21.0678056900       25.1867024900
  O        16.6753059200       16.1668302600       23.9085574900
  O        16.9711041700       20.8092133500       19.3331038300
  O        22.0219481700       19.9141843400       22.5408366300
  O        19.2360723300       16.8825257700       24.7078771400
  O        16.6209142000       17.7693375400       21.6310607300
  O        21.2203510800       22.2957865900       21.6098472200
  O        17.9887906500       20.0181249200       22.3096368300
      39
 i =        1, time =        0.000, E =      -223.8279001359
  H        19.8932839300       20.2202747000       19.6087998700
  H        23.1066289400       21.1123470400       20.5923645800
  H        22.4757592900       21.8300538500       21.8191029000
  H        21.0446993500       15.8342762000       21.3709063900
  H        20.2972045500       17.3063029200       21.0565941000
  H        18.8328309000       19.6963678500       25.8429974100
  H        18.5089839400       19.8861550600       24.2655735100
  H        18.5994036500       18.5929193000       19.6412318700
  H        18.2898587700       18.1627053800       21.1050872600
  H        19.1185096000       19.8833424900       21.9578237500
  H        18.4080478400       21.2563577800       22.1239318300
  H        15.9440108500       16.8072151000       25.4476712700
  H        16.7046813900       18.2039565500       25.1567302300
  H        18.8052381600       22.0195325300       20.0902169000
  H        17.7501996900       22.9806115200       20.6946182300
  H        20.9585570600       17.7393812700       23.1719860300
  H        19.9606135400       18.1719486200       24.3584318000
  H        19.3945613500       15.8115311200       23.1598214800
  H        18.0350938200       16.3409176800       23.4149288500
  H        16.5697774900       17.8795326100       23.1637987100
  H        16.4223566700       18.3313950100       21.5915441600
  H        22.0413090000       20.4541364200       23.7106738200
  H        20.7541647100       21.0741132900       22.8909075800
  H        16.3767079400       20.2331404200       20.2095651500
  H        14.9915438500       19.7403293600       19.7663162200
  H        21.0269883000       21.3560291800       19.8604332100
  O        20.2197929900       21.1084536200       19.2890010400
  O        22.3966946300       21.7923313600       20.8313735300
  O        20.5181163000       16.5749440600       21.7326726000
  O        18.3501805000       19.2782111100       25.0735064800
  O        19.0356622300       18.5808710500       20.4947635300
  O        18.8541345000       20.5660193300       22.6162985700
  O        15.8811338500       17.6342655300       24.8981250000
  O        17.8388630300       22.0415915800       20.4443548900
  O        20.8420673400       18.3711692600       23.9289764300
  O        18.6913876700       15.6887055800       23.8065052400
  O        16.9847079400       17.7988399000       22.1956295700
  O        21.7396422700       21.1520494100       23.1177283900
  O        15.8289060900       19.3911765100       20.1341986000
      39
 i =        1, time =        0.000, E =      -223.8262581611
  H        21.1668287600       16.7261893600       20.0770268900
  H        18.5410078900       21.2729605500       20.2424409900
  H        19.9197510000       21.2772154300       20.7421950700
  H        22.0710205200       17.9484279200       21.3228116200
  H        20.7913476000       17.8116279600       22.1139702500
  H        18.9555248400       20.1623627800       25.3476245300
  H        18.4570802700       20.1526359600       24.0178671800
  H        18.8688716800       17.3231122700       21.1273425100
  H        19.0890854300       16.7036039600       22.4578866000
  H        19.2535197400       22.2687790800       23.1061312700
  H        17.6407460400       22.3227696200       22.9153718500
  H        15.6052179400       17.6338528300       24.4531382600
  H        16.8489345800       18.4243540900       24.5877677100
  H        18.4863108700       19.1236805500       19.9502624900
  H        17.3143748600       18.1196254500       20.1742680200
  H        21.8659689300       19.2093880400       23.3203493200
  H        20.9533970700       19.4724984200       24.5636410400
  H        19.1525627300       16.4490058800       24.8376331000
  H        18.7190143300       17.8877684000       24.3873004700
  H        16.0515129600       18.5970874800       22.4229062400
  H        14.8550144700       18.7679947100       21.3446803300
  H        21.3093615300       21.3586839100       23.0236999300
  H        21.5028664400       22.7514173400       22.3535677700
  H        16.4045802900       20.0872150500       21.1066467700
  H        16.1755815200       21.4995984700       20.2219455300
  H        21.1427346500       17.4454198400       18.7019470200
  O        21.7004436600       17.3582686900       19.5534997100
  O        19.4509614800       21.0446618300       19.9449621600
  O        21.7525165500       18.0943969900       22.2359025000
  O        18.5128529500       19.5104197200       24.7754680000
  O        19.5632333300       16.8302938900       21.6359105800
  O        18.3799545200       21.8565073900       23.3931956300
  O        16.0880253200       18.3513717000       23.9862677700
  O        18.2272803900       18.2251420000       19.9101505400
  O        21.6074245800       19.9113470200       23.9766842400
  O        18.6941682600       16.9047606200       24.1417720700
  O        15.8780776500       18.7530821400       21.4258535700
  O        20.8141005900       22.0203502700       22.4398754900
  O        16.7118968200       21.1260652400       20.9641333700
      39
 i =        1, time =        0.000, E =      -223.8378670825
  H        20.8220154600       20.4241752000       19.7716616200
  H        19.2333590500       21.8952399400       20.6291238100
  H        20.7134647300       22.0291898900       21.3829427400
  H        19.5013862200       16.0401229500       23.6447250400
  H        19.4604181000       14.6847786400       23.1098017700
  H        17.6898719300       20.0024513400       25.0001278000
  H        19.0525043000       19.3501429600       24.5563951600
  H        20.0478892800       18.5053955800       20.7679440800
  H        19.5095496300       17.0631874200       21.3034005100
  H        18.4948797800       23.1703786800       23.6018958200
  H        17.8253221300       21.9212905000       23.0582007000
  H        16.7230006500       17.3044215500       23.8215153200
  H        17.5077528600       16.3651843800       22.8943294700
  H        17.5344739200       19.3648813800       18.7831854100
  H        18.0802984900       19.8163320200       17.4162626200
  H        21.6189377000       18.2571687400       23.9385384300
  H        20.4727238600       18.5492916700       22.8884881200
  H        20.1081808500       17.5845415300       25.3670226600
  H        20.2578751500       16.2663972400       26.1430273900
  H        17.7573276700       18.3082042000       20.7572907900
  H        16.3989448900       18.4153326000       21.6017016400
  H        21.2662548000       20.9076420400       23.2359428800
  H        20.0522532400       21.9177802200       23.5047077900
  H        16.7785572500       21.9085654400       20.7122242400
  H        17.2907501300       20.4543088000       21.3595951300
  H        19.9524087000       19.3920668000       18.9903020000
  O        20.6715211000       19.3932067700       19.6379752100
  O        20.2274926100       21.8626095500       20.4622393600
  O        19.3009561700       15.5834979400       22.7805313100
  O        18.1839278000       19.1332257900       24.9654803100
  O        19.3381884300       18.0271796300       21.3863724800
  O        18.4129897200       22.2199180900       23.8138213800
  O        16.6804468000       16.9085185900       22.9453065600
  O        18.3580969400       19.2386783400       18.1926837700
  O        20.8883299300       18.9136464100       23.7616008700
  O        19.8129852200       16.6629129400       25.3721125600
  O        16.8950167200       18.8016238500       20.7767495400
  O        20.9264409500       21.8499938400       23.0500549100
  O        17.4950163200       21.4482839600       21.2815944300
      39
 i =        1, time =        0.000, E =      -223.8519050615
  H        20.2951332700       20.2820140300       20.5711041800
  H        20.5387624800       22.4661611100       21.4827528600
  H        19.5665200500       23.5567882100       22.3180026800
  H        20.9059269900       18.0591742100       20.9057803200
  H        21.1836433500       16.9092225000       21.8837930700
  H        19.8510795200       20.2897750300       25.2472416700
  H        18.8121349900       20.4359256900       24.0215106800
  H        18.2238844400       17.2665246400       20.7407624300
  H        17.0427627100       16.5191606500       21.4177889200
  H        18.4654428500       21.8006102900       22.3301561600
  H        17.1069425800       21.1351062300       22.7409261200
  H        19.0145456400       16.5844263900       24.1649444200
  H        19.0960412500       18.1740468600       24.5536369600
  H        17.3784768600       21.7271656100       19.7216889900
  H        16.5263949100       20.7139662500       20.6066793600
  H        22.0205099100       18.8625747500       22.5778771300
  H        21.0590782200       19.6477560400       23.3659203100
  H        19.0611166200       15.7380282500       21.7163549700
  H        20.0617000600       14.5827520200       21.7787329300
  H        16.5334072100       17.5053976800       23.6553661500
  H        15.0786438100       17.0214425300       23.2866179900
  H        21.8526897300       20.8363782000       22.1070474800
  H        22.7810656200       21.8619720200       21.3336253000
  H        15.5500821100       19.2177306300       22.3114921800
  H        14.7706163800       20.6068875000       22.2122075900
  H        18.8226930600       19.8656956200       20.5873399200
  O        19.7245167600       19.4984559300       20.4823967600
  O        19.5866653600       22.7962784100       21.6558965500
  O        21.7092054800       17.5763044800       21.3546900100
  O        19.5116114600       19.8447156300       24.4471133600
  O        17.9290357800       16.3928037500       20.9770752200
  O        17.9565483100       21.3780004300       23.1364618600
  O        18.5633155200       17.3536310800       24.5830740100
  O        17.2427699200       20.7830163300       19.9116822600
  O        21.9843193500       19.6797208200       23.1487609500
  O        19.8189245200       15.3636254100       22.2874193500
  O        15.8156751900       17.5307932900       22.9749175000
  O        21.8752103100       21.5176315100       21.2537139400
  O        15.6343404700       20.2169143500       22.2511864300
      39
 i =        1, time =        0.000, E =      -223.8306504047
  H        20.7958316800       19.8728745800       20.2211429700
  H        17.8876482800       22.3013085400       22.0789888100
  H        18.9691516900       21.2090533400       21.8637995400
  H        21.9877501600       16.4347599300       22.4471689800
  H        22.2002985600       17.4218042500       21.2399780700
  H        18.8615054600       17.7054805100       25.3308757900
  H        20.1217400800       17.5498832700       26.1746254000
  H        19.3720093900       18.1376358100       21.0325344100
  H        19.5736272200       18.1198551700       22.5413884800
  H        15.3654612400       22.9865861000       22.3751887500
  H        15.9440987000       21.7813057800       21.5631655500
  H        16.5773314700       17.8625310700       25.8446361200
  H        16.9463865400       17.7986004400       24.3338427100
  H        18.8261057700       21.7748115400       19.9275854900
  H        18.8531490500       21.8739436800       18.2805122800
  H        21.3562025800       18.8210583600       23.0817413200
  H        20.4298098100       19.1008582900       24.3690038000
  H        19.7888262400       14.9618552300       22.8784640700
  H        20.1485229800       16.1931031000       23.7539624000
  H        16.2776901100       17.6581966300       22.3979758600
  H        17.6261752400       18.3926417300       22.1249577000
  H        21.3107498400       20.8675831800       22.1537114300
  H        20.7582730900       21.8398068300       21.0605580700
  H        15.8540027800       19.7647354800       21.0576458800
  H        16.9555554700       20.5304363500       20.0692990000
  H        19.4356507000       19.6140823200       19.2156907000
  O        20.1524258200       19.1995909300       19.7800990100
  O        18.8357508300       22.1620029000       21.8035173900
  O        22.2726959100       17.3156598200       22.2091008100
  O        19.8365284400       17.6650184200       25.2418508400
  O        19.1476077200       17.6198058100       21.7806139100
  O        15.9490195600       22.2203337900       22.4788309600
  O        17.2402916500       17.4926331300       25.2408227000
  O        18.5071882500       21.4172214500       19.0745201900
  O        20.7211774600       19.4609342400       23.4865222500
  O        20.5610809100       15.4152487400       23.2969257800
  O        16.7229457200       18.5255522200       22.4668213000
  O        21.3588469300       21.0498397000       21.2144942800
  O        16.0072484200       20.4568437200       20.4041868000
      39
 i =        1, time =        0.000, E =      -223.8267053712
  H        22.5315045400       20.1218003000       19.2637331100
  H        17.9043634400       20.0197466900       20.2726421200
  H        18.6686971400       21.3311093400       20.0308566900
  H        23.3049251200       18.3490507300       23.1837250700
  H        21.9168313000       18.4098011600       22.5597012700
  H        16.8439192800       20.5855431100       25.6329430000
  H        17.0184583900       19.8991201900       24.3606821200
  H        20.9879963900       19.4155334500       20.8948941900
  H        19.9678124100       18.5851054500       21.7659783500
  H        15.3349846400       19.4287120700       23.3462431600
  H        14.8526068900       20.7405127900       24.2829628800
  H        19.1209180000       16.8648663200       24.7964501700
  H        18.2203052000       17.8737631200       25.4139730500
  H        18.7326378500       19.8984680400       18.3026011400
  H        19.0091812300       19.4526329900       16.8469233000
  H        20.0777647100       20.1881635500       23.4554718200
  H        18.9030887200       20.8679720300       24.1532345000
  H        21.3077689800       16.7216825800       23.7954863600
  H        20.5931364000       15.3265346800       23.8256441900
  H        16.9834916200       17.5438004900       24.0443376800
  H        15.7628211600       16.9338376200       23.1999844300
  H        19.5136048800       21.8552655100       22.1930888300
  H        19.3830323600       23.3451891200       21.7744041800
  H        17.2218355000       17.9192200000       21.6747438500
  H        17.4436681800       17.5797037100       20.2678889300
  H        21.0346038800       19.6936606500       18.7605186300
  O        21.8392236300       19.4826392100       19.4144954200
  O        18.0943917000       20.6788628900       19.5782656000
  O        22.4816903000       17.8426981000       23.1155110100
  O        17.4871736700       19.9950167000       25.2061501400
  O        20.7198000200       19.2126036200       21.8561311100
  O        15.3294722200       20.4422498900       23.4118988400
  O        18.1493590200       16.9953094400       25.0003732900
  O        19.4608212400       19.7637893800       17.6352545200
  O        19.7732665600       21.0994247600       23.6854535500
  O        20.4008109800       16.3040862600       23.9094645400
  O        16.2679927100       17.7826908100       23.3361605200
  O        19.3761435700       22.4704313600       21.3051230600
  O        17.9064269200       18.0332005800       20.9811397400
      39
 i =        1, time =        0.000, E =      -223.8405785690
  H        22.0608254900       18.2805370500       18.8732461800
  H        18.1218056800       22.6645710300       19.4720834300
  H        18.6340312600       21.7085374000       20.6864580400
  H        20.1475089000       16.2343268200       21.7171740800
  H        21.1773149900       15.0813615600       21.5039772700
  H        18.3038100300       20.4042816100       26.0935014100
  H        17.7376502600       20.8512847700       24.6826772400
  H        20.0670140600       18.7793088600       21.0047006600
  H        18.8663257400       17.7856108400       21.5051471300
  H        17.5204269000       21.9369253200       23.2151519800
  H        16.1661267900       21.3248017300       23.2998067000
  H        18.7099943800       17.1737365800       24.2897346000
  H        17.8093008000       18.4431761300       24.8575952400
  H        19.5803542500       19.2220698900       18.7339947400
  H        19.3037736200       20.6763442100       19.2641296600
  H        19.7894806200       19.9851431600       24.0831316600
  H        20.1021114300       18.8107372300       22.9265962400
  H        20.6188569000       16.0249241100       23.7119332800
  H        21.1577271000       16.9800284500       24.7115906800
  H        17.4452689500       17.8908234100       22.9779639400
  H        16.3384748800       17.4573149800       21.7808001700
  H        19.8523838300       20.8906364600       22.4484696400
  H        19.8544152200       22.4480478400       22.1745886600
  H        16.6861263000       20.7601057200       20.8873673800
  H        16.3157342500       19.5639999600       21.6609585200
  H        21.9600854700       19.6608267600       19.3335760700
  O        22.5589238600       18.8924986700       19.4179432900
  O        18.2629669000       21.7056476700       19.7639718400
  O        20.4844763400       15.3595027100       22.0478782500
  O        18.3375576700       20.1776516800       25.1698945300
  O        19.8006477200       18.0007765500       21.5153130300
  O        16.7729827800       21.8971985200       23.8353391300
  O        17.7835105200       17.6139230800       24.2949516400
  O        20.0535076700       19.9877857300       19.1479398500
  O        20.3233720900       19.7566100300       23.2930598400
  O        20.3159193000       16.3991918400       24.5973269400
  O        17.1532745000       17.9967189600       21.9399879500
  O        19.2899231700       21.7088725400       22.0090378800
  O        16.0432242700       20.4750308000       21.5415596400
      39
 i =        1, time =        0.000, E =      -223.8549327035
  H        20.5858457700       19.0154974200       18.8023645500
  H        19.2479834300       23.4572839700       21.9539902900
  H        19.1924268900       21.9276604100       21.9926111800
  H        22.2312573800       16.5658523000       22.7055642400
  H        20.9135470900       17.2986925800       22.2906347300
  H        18.2808542700       18.5292980900       24.6345514500
  H        17.9611847000       20.0757306000       24.8646393100
  H        20.0122801500       18.9353426000       20.8463174300
  H        20.1063106100       18.9886408000       22.4870785000
  H        16.8812898800       20.7871829800       23.1213161400
  H        17.6078912900       22.0600306000       23.7019985000
  H        16.9448821200       16.5541865800       24.5622821900
  H        18.1557488000       16.0291066100       23.6404663800
  H        17.6599780900       20.3722143900       19.0095953200
  H        18.3237005400       21.8146103300       18.5856258400
  H        20.1355348400       19.3512397300       24.5314204600
  H        21.3792823700       18.6491852400       23.8670478500
  H        20.2025035100       15.4659165000       23.5898023300
  H        19.6860120800       14.0130899000       23.1816133000
  H        17.1184740500       18.0680674600       22.7143435500
  H        18.2646336900       18.7597224700       21.9202522400
  H        21.0677881800       21.2315635900       20.7839804800
  H        21.4433420400       21.1623469700       22.3304256400
  H        16.6398013400       18.9620084300       20.5432122300
  H        15.5378156500       19.3338574500       19.4630729400
  H        19.6115957400       20.1757131300       19.1028015500
  O        20.5362120900       19.8112641600       19.4180899100
  O        18.5629380100       22.7502204800       22.0687397900
  O        21.4703445800       16.9357293200       23.0727567400
  O        18.5729054500       19.3016581000       25.1653430300
  O        19.8029938900       18.4203885100       21.6766441200
  O        17.0431993200       21.3393796500       23.9972241100
  O        17.6117058300       16.7814466600       23.8787730900
  O        18.4152868200       20.8529236700       18.6194169400
  O        20.8287506500       19.4655650000       23.7460993600
  O        19.4337361700       14.8413836300       23.6859529500
  O        17.2825958600       18.8408940900       22.1228314500
  O        21.0704512700       21.6867115500       21.6090117200
  O        16.4946661500       19.1615491100       19.5554920600
      39
 i =        1, time =        0.000, E =      -223.8427477245
  H        21.7920135400       18.4325445400       18.5075552800
  H        18.0788501100       22.8265857000       19.8208209000
  H        19.3672646800       22.6507511300       20.6728716800
  H        22.1921660800       17.1156202900       23.5313423600
  H        21.0005425500       17.6198161200       22.7305684600
  H        17.5666412400       19.7370842500       25.7746567100
  H        17.8443266200       19.8041756700       24.2535951000
  H        20.8266615400       18.8833869900       20.7467763300
  H        19.4282242000       18.4369990700       21.5145929100
  H        16.9405361300       20.0634228700       22.4753902900
  H        18.0473109500       20.9858315900       22.6283619700
  H        17.6139316800       16.3464722800       24.3578826300
  H        17.1619558000       17.7291514000       24.7290340300
  H        19.8198527500       21.6670371100       18.7773309600
  H        21.2567479300       21.4411534700       18.1295345700
  H        19.4288846500       20.5754611700       25.3674393300
  H        19.7345771200       21.9945743700       25.9759878600
  H        19.9157426800       15.7418962100       23.5902999900
  H        19.6826938900       14.5864226300       24.5059637800
  H        17.6182241200       16.8690655000       22.7026635300
  H        17.3648945100       16.4650213800       21.1809099100
  H        19.8157998200       21.9745122900       23.2924850100
  H        20.2578443100       20.8234037300       22.4155483300
  H        16.5565697600       18.3617168100       21.1095728700
  H        15.3291839400       19.3674767900       21.1863060700
  H        20.8158088700       19.6697392100       18.7215336100
  O        21.1920877100       18.8463208100       19.1752872600
  O        19.0872067600       22.8000671100       19.7837619400
  O        21.2308294600       16.9300920300       23.3856496200
  O        18.1032176100       19.2617485300       25.0898192800
  O        20.2771834700       19.0109605000       21.6241050000
  O        17.2059150100       20.7493978400       23.0976941300
  O        16.8044644600       16.9324507100       24.2838993800
  O        20.3377505200       21.0636299400       18.1883167500
  O        19.9219103600       21.4487315900       25.2040896400
  O        19.2594365800       15.0423590900       23.7775027500
  O        17.8110386000       17.1626917300       21.7588517400
  O        19.7542415200       21.6538874800       22.3817611400
  O        16.1237900600       19.1238936700       20.6468859400
      39
 i =        1, time =        0.000, E =      -223.8369030703
  H        20.9220433000       18.7838488700       18.6638352900
  H        21.1795932500       22.2629646700       19.3410386600
  H        20.4265848200       22.1902841500       20.7195822600
  H        19.0201438100       14.7221425900       23.3359711600
  H        19.7465166200       15.7647257000       22.4592041700
  H        19.2963870700       19.2725911200       25.5657048400
  H        19.1466040100       20.7447871200       25.1068182200
  H        20.1622158900       18.0301949000       20.7592291800
  H        18.8479383200       17.5734975400       21.5821732700
  H        18.3336812100       21.0318048100       22.8014943600
  H        16.7889550300       21.0403914800       23.2636679300
  H        17.7474113600       17.7901637300       24.5905502900
  H        17.3183669900       19.2309098200       24.1816107600
  H        18.9444642400       21.7400398700       19.0726037200
  H        17.9885737300       22.0063598800       17.8369103800
  H        20.9437731700       18.3038761900       22.7349992400
  H        20.9053732400       19.2943903200       24.0009433200
  H        19.6237291600       16.4525790900       24.5057480400
  H        20.0976293500       17.1383315400       25.8432118100