      45
 i =        1, time =        0.000, E =      -258.2573476070
  H        19.2547857600       15.3738879700       19.4830345300
  H        22.6602047300       18.7681688900       19.9691207700
  H        23.4040930500       17.5088537500       20.4938389600
  H        17.4405277100       17.0836592700       23.4871822300
  H        17.9312924800       16.9508933700       21.9946074300
  H        18.8495852100       22.4485185900       19.1934845000
  H        18.2285692800       21.0985358200       18.7895116500
  H        19.1243392200       17.6815211000       20.5050821500
  H        18.4238960700       18.9781849100       20.4617858000
  H        22.0988173700       21.4075965800       23.0196831700
  H        22.0626536800       21.5150889900       21.5276955900
  H        17.3759848700       21.0438214800       22.6314026100
  H        17.7427220800       22.1158745500       21.5747063400
  H        21.9756653500       15.4711215600       17.7773317500
  H        22.2184837900       16.7993436300       18.6317195600
  H        19.9145476600       16.5309191700       23.0976316200
  H        20.8616643300       16.1532825400       24.3007460600
  H        18.6591963000       19.2741423100       22.4631219800
  H        19.4681841200       19.8920383900       23.5170671400
  H        16.9367326900       20.4521680300       20.6349276100
  H        16.2530138000       19.7164591000       19.4951564900
  H        21.4049088900       18.3335536300       23.6104377200
  H        22.4307768300       19.3602702800       24.1509330900
  H        20.8927597700       21.0968999100       19.2037369800
  H        20.4640239100       20.0596479100       20.3224978900
  H        19.3412150400       13.3586215700       22.2086120900
  H        18.2631921400       14.5070833900       22.6708594500
  H        19.1149866100       22.8497647600       23.4291807200
  H        20.3073478500       22.4986785500       22.4609393300
  H        20.1006384900       16.5927279500       18.9140793500
  O        19.4759182700       16.3087145400       19.6317955000
  O        23.1198534200       17.9853342900       19.7076631100
  O        17.5994323000       16.4335218000       22.7724473800
  O        18.9546602300       21.7557443000       18.5047223300
  O        19.2077852000       18.6138464800       20.8687357100
  O        22.0742030600       22.1666180600       22.3379618900
  O        16.9830054200       21.5499668400       21.9267033400
  O        21.7013368400       16.4368292600       17.8271434600
  O        20.7739305700       16.7207615000       23.5139417600
  O        18.5561783700       19.7170098800       23.3415552600
  O        17.1278961300       19.9219105900       19.8238058600
  O        21.6445890000       19.2859302800       23.5200014500
  O        21.2058149200       20.5580844500       20.0101887000
  O        18.9604236600       13.7966042600       22.9821752000
  O        19.3745326600       22.8095314900       22.4497547000
      45
 i =        1, time =        0.000, E =      -258.2798998454
  H        19.6531997500       17.4968134700       17.2125112200
  H        22.2468672400       21.0293129900       20.0195707600
  H        22.9295196200       20.1190211300       21.1772124100
  H        17.3670695600       15.5125928600       22.0022004300
  H        17.7926654500       16.1583350600       20.5205378500
  H        16.2132071700       20.7886484800       20.7784589100
  H        16.9081486800       22.0924692000       21.1663960000
  H        17.9942832200       17.4864963900       18.8886036400
  H        16.7863083900       17.9106964500       19.7786588000
  H        21.8693118600       21.2389407800       22.3908517000
  H        20.5655660400       21.3483067000       21.4046294200
  H        18.3737184600       18.8163917000       23.2023361700
  H        17.9444205200       20.2885774300       23.5772360200
  H        22.5030897700       18.0081677100       18.1632722000
  H        22.3776387000       18.7077182900       19.4479374600
  H        21.5235797900       17.5142587400       22.9296428900
  H        22.9239628300       17.2560158400       22.2645336700
  H        19.0720178100       17.1424785300       22.1837891300
  H        19.6736678000       18.6469483100       21.8953756100
  H        16.3680367900       19.2428255900       22.1585404600
  H        15.1183217400       18.6207467200       21.5362022200
  H        23.3736623000       19.0993540500       23.1344375800
  H        24.4956995800       20.1401759500       22.6848330200
  H        18.5393085100       20.4998957900       20.6928475800
  H        19.4770444800       19.5209652600       19.8119071400
  H        20.2823597600       15.3996630200       21.3911225100
  H        21.0676770600       16.6095778700       21.1018079900
  H        19.3119748100       21.9762089100       24.4499038900
  H        19.6828262900       22.3338174000       23.1446668200
  H        20.5249817000       17.7257193100       18.5488322800
  O        19.6146387400       17.6023623100       18.2318522700
  O        22.7788558400       20.2208139200       20.1912185600
  O        18.1443317900       15.8083512500       21.4437796800
  O        17.0086259600       21.3093033700       20.5971834000
  O        17.2129142600       17.1119194000       19.3754042500
  O        21.1508188400       21.8382808200       22.0150861100
  O        17.6145164200       19.4081383400       23.3043496400
  O        22.0739174000       17.9180547400       18.9775578500
  O        22.4988738200       17.5239427300       23.1075191900
  O        19.7109862100       17.8765161400       22.4685422800
  O        15.9520905400       18.9973956100       21.2531618700
  O        23.5620858800       20.0594810700       22.9442606800
  O        19.4127365800       20.0345650700       20.6418772000
  O        21.1615320200       15.6082048100       21.1194962200
  O        18.8780511800       22.5030452900       23.6960751000
      45
 i =        1, time =        0.000, E =      -258.2691184262
  H        19.9936545100       17.7783646300       17.7601796400
  H        21.9561178500       18.9858610100       20.2784568000
  H        23.5892900800       18.7527078100       20.1787733200
  H        17.6102270000       15.1878859100       21.3021488200
  H        17.5635486100       16.6681953000       20.8286092600
  H        17.7070094000       21.0338394800       19.9379652900
  H        18.3657119500       22.3754299100       19.5977875900
  H        17.5926364200       18.0429597500       19.2069312600
  H        16.6446269400       18.9831227100       20.1166898900
  H        20.8658333900       20.5340192600       21.8134164200
  H        21.3092985200       20.2165749400       23.2602226300
  H        17.2395891200       19.9485068800       23.6972677300
  H        17.4986871000       21.4429230600       23.2508642600
  H        21.0674098500       15.3795627400       20.5333496300
  H        21.9402371000       16.6560959100       20.0108196400
  H        21.3940460200       17.7205767500       23.6880665800
  H        22.4936492600       18.7150130800       23.0868150000
  H        18.4976041700       17.7017565300       22.4297994100
  H        19.0608712300       19.1056661500       22.0486817400
  H        16.3679960000       20.4354593100       21.7493143300
  H        15.1496712900       21.0272139500       21.0242676000
  H        26.2936666800       19.5278272200       22.3044649300
  H        24.8599479900       18.8282420200       22.3511591000
  H        19.5495462600       20.3283826500       19.6964351700
  H        19.9301094200       18.8783969900       19.5365442700
  H        20.7606725300       15.0641779700       23.1624940700
  H        19.9283580300       15.9204828200       22.0948807500
  H        19.7308942200       22.0782252700       22.4591260100
  H        18.8327722000       23.4045052700       22.2756408200
  H        20.0278215300       16.6764461900       19.0912461100
  O        19.4772955300       17.4351793900       18.5700240200
  O        22.7200978800       18.3304004300       20.2614113900
  O        18.1677278500       15.9971177400       21.2524205100
  O        18.2575014900       21.4553483700       19.2459602900
  O        16.9298145100       18.0580789900       19.9111513100
  O        21.2910232800       20.8811294200       22.5757397400
  O        16.7802237700       20.7247972900       23.4528120000
  O        21.2840682800       15.9907479700       19.7301284600
  O        21.9086737800       18.5349605300       23.8892069900
  O        18.6492387200       18.6503852200       22.7678728800
  O        16.0346560900       20.6044117100       20.8000157200
  O        25.5176506700       19.2626640200       21.7741167900
  O        20.1531588700       19.6662275800       20.1243727900
  O        20.7559410800       15.9184718700       22.5969970300
  O        18.7936340000       22.3944208700       22.3449755500
      45
 i =        1, time =        0.000, E =      -258.2892283286
  H        18.3653965100       15.8895630500       18.3734402500
  H        21.0306441300       19.5313497600       18.8121449300
  H        22.5114754900       19.6448575300       19.0991122100
  H        18.2713336100       16.6249402900       24.5395558000
  H        17.9990314200       16.2309156700       22.9852773500
  H        16.5022495600       20.9087321200       19.8834340900
  H        17.5562646800       21.1942977300       20.8915181000
  H        17.7100360700       16.6029328300       20.5954674100
  H        16.7611172700       17.2219519000       21.4866937800
  H        22.1047403900       21.2955788100       20.6759485400
  H        20.7147117900       21.7912350900       20.0314236900
  H        18.6033619800       20.1200231800       22.7723137200
  H        18.7144217700       21.6397386100       23.1292253200
  H        21.9594492200       16.0355955900       20.2211547000
  H        21.8372723900       17.1737555700       19.2016347900
  H        21.4868498400       18.6626705500       22.5592192800
  H        22.5231550400       17.7368908500       23.1223111600
  H        19.4374265000       17.6845811800       23.2043541200
  H        19.2022817500       18.2205913800       21.7266001600
  H        16.6944035900       20.0016557100       22.4054305700
  H        15.3880409500       19.2585908900       22.2452020600
  H        23.3072644900       19.4153607900       21.2845149700
  H        24.3145873500       20.5427257600       20.9922098100
  H        18.5721585700       20.5280705300       19.2794248900
  H        18.9016388800       19.0336384700       19.1223588600
  H        21.6129550100       15.4530983200       24.2663616800
  H        20.4819561300       16.0464946000       23.4077599400
  H        19.7364603800       23.4731750300       22.6175321900
  H        20.4942240800       22.1964040300       22.1821396100
  H        19.5507470700       16.3231933700       19.2310033800
  O        18.5912093100       16.5973216700       19.0337489200
  O        21.8957401300       19.0655702000       18.6122284900
  O        18.6354514700       16.2434800300       23.7328853900
  O        17.2760672700       21.4877578500       19.9867767200
  O        17.3086497900       16.3477038200       21.4809160600
  O        21.2646656800       21.8253152800       20.8595144400
  O        18.0327260300       20.9353717800       22.8579597600
  O        21.3817848900       16.3926541100       19.5925283000
  O        22.4364857000       18.5491681000       22.5857633100
  O        19.5939937300       18.4948685700       22.5690420100
  O        16.2533694400       19.3185993500       21.8484441900
  O        23.5410724400       20.0906047800       20.6217705400
  O        19.2544752900       19.9360647300       18.8905207400
  O        21.4161485700       16.0845486100       23.5798357100
  O        19.9318503400       22.5930122700       22.9462067200
      45
 i =        1, time =        0.000, E =      -258.2691864928
  H        19.1980593900       18.1946398300       16.9696129200
  H        21.4320587600       17.8668402100       20.5015070200
  H        22.4292078400       16.8727064200       21.2392595700
  H        16.6614566600       16.9654397400       22.1831083300
  H        17.1373200300       17.0705547800       20.7525513300
  H        19.0692215500       23.2142875900       21.0103950500
  H        17.5002124800       23.5021101500       20.6592316600
  H        17.0947237000       17.9442230400       19.0560195000
  H        16.7899662500       18.8626511500       20.1121981500
  H        22.2029919700       20.7218854600       22.4918524400
  H        22.8637779600       20.4422182400       21.0909154700
  H        19.4523816600       21.6622072400       23.1562170200
  H        19.1019371300       20.2496138700       23.5393345800
  H        20.4671851600       15.1689071100       18.0943256900
  H        21.0254913700       15.9104062800       19.4021975600
  H        20.3456905000       17.9091365800       24.0697488200
  H        21.6673809200       16.9507526800       23.8107052100
  H        18.6908607800       17.7730945000       22.1999534200
  H        20.1894321700       18.0025189400       22.1506398800
  H        18.6114543300       20.0728368400       21.2747510300
  H        17.8168410200       21.0445206000       20.3606946100
  H        21.7678735200       19.0712329000       24.3489742900
  H        22.8304320000       20.1319225900       24.9457102300
  H        20.9144869400       19.8743537600       20.1801727900
  H        20.0219597700       19.1741966400       19.0715519200
  H        20.6389969400       15.4884543300       21.2212860000
  H        19.2136000300       15.0431972400       21.2829939600
  H        20.6163483900       23.6415220500       22.7391995600
  H        21.2502563900       22.5279264800       21.6689681100
  H        19.6499448700       17.3334920900       18.0523721400
  O        18.9975396300       18.0546353500       17.9060511900
  O        21.4651783700       17.0490195900       21.0779661700
  O        17.4518855300       16.7935311200       21.6663852800
  O        18.3066563800       22.8558387800       20.4452223200
  O        16.3631916900       18.0568104200       19.7292643700
  O        22.2498503700       21.0815267600       21.5566399200
  O        18.7032660200       21.1475110700       23.5523035400
  O        20.7554006900       16.0553407200       18.4738350800
  O        21.2067674800       17.5909248500       24.4477430100
  O        19.4214915100       18.2954356000       22.6436552100
  O        17.9719013900       20.0927753100       20.5459194300
  O        22.2601110500       19.9819060200       24.1760500500
  O        20.8631106500       19.0753567700       19.6092052200
  O        20.1084804100       14.7199360300       21.4800299600
  O        20.4175706200       22.9725539500       22.0585052900
      45
 i =        1, time =        0.000, E =      -258.2749460999
  H        17.6799007100       17.0540253200       17.9750797700
  H        23.2999047300       17.3440605500       18.5543240100
  H        23.2344292200       18.4753548700       19.6539305400
  H        18.7988098600       15.7429693700       22.6819379300
  H        17.7002816700       16.7535285200       22.3481468700
  H        16.7293166900       22.0725565000       21.5351422100
  H        18.1671555600       22.6377148500       21.7962345200
  H        16.7620479300       16.8696492500       20.2391161500
  H        16.1039248100       17.9017920900       21.1783527100
  H        20.9371283400       22.4503560000       20.1863838500
  H        20.5820624000       20.9623321200       20.2603783300
  H        18.8024085400       20.8396756900       23.8137543100
  H        18.8110513400       19.2839024300       23.7454451100
  H        21.3329620500       17.2960374400       19.0525061400
  H        20.8074319400       15.8628836500       19.2714333400
  H        22.0852201600       18.8376015300       22.6920759600
  H        23.6992819000       18.6653622300       22.8088262200
  H        19.7790936300       17.6766922800       22.7130491700
  H        19.6938899400       18.9101890300       21.8521938400
  H        16.9963914900       19.7083848200       22.7021935300
  H        15.4202265100       19.3505992600       22.8109921300
  H        23.6158013200       19.9289406500       21.0599233300
  H        23.7817149200       20.6409713000       19.7431139400
  H        18.2649479800       19.5246239700       19.8935274100
  H        18.4288933000       20.7402118500       20.7811476000
  H        21.8598346400       16.6622854100       21.4495572500
  H        22.3744052700       15.2747198000       21.8233110200
  H        20.3891045100       22.8264033900       23.0465184600
  H        20.2106678400       21.7859068600       21.8652420000
  H        18.7791889100       16.7068994800       18.8748071800
  O        17.8268391400       16.5227260500       18.7125691800
  O        22.8830654600       17.5787092300       19.4110884500
  O        18.4950371200       16.6085828900       22.9300991000
  O        17.5530011900       22.3737324200       21.0507808600
  O        16.4590935600       16.9861558400       21.1811868200
  O        21.1363663800       21.6310866400       20.6687633300
  O        18.2303242500       20.0205495600       24.0373556200
  O        20.4770833000       16.7616384600       18.9470945800
  O        23.0041899000       19.3102745900       22.5208043300
  O        20.2005376700       18.6062024800       22.6086137200
  O        16.0712485000       19.6797145200       22.1140751200
  O        23.9198257400       19.7831445900       20.1410837100
  O        18.9772378500       19.9819981400       20.4298101600
  O        21.6175884500       15.8452697100       21.9739394400
  O        19.7869858000       22.1270936300       22.7188680800
      45
 i =        1, time =        0.000, E =      -258.2564416628
  H        18.4739742500       17.2114238800       17.2105942700
  H        23.2080596700       18.8861156300       19.7159590300
  H        21.7696324600       19.3669098400       19.7277962500
  H        16.5082775800       17.0104507800       21.4365622900
  H        16.1339656100       15.7585122200       22.2100699100
  H        20.4422038700       21.7249172200       20.3494873600
  H        21.2780793500       21.2442324500       19.1286094900
  H        16.7744627300       17.6560222900       19.2255949700
  H        16.0751630300       18.9269281500       19.9498921200
  H        22.6948917200       20.5692459600       23.4083037300
  H        22.5744605100       21.9246647100       24.2352693600
  H        19.0731247000       22.3327850500       23.2193936900
  H        18.0768284800       21.9085873000       24.3279443700
  H        21.7778261400       16.5101545800       18.2600057200
  H        21.1624863300       16.3978447100       19.6762965600
  H        19.8271114800       19.0117297900       23.5450905500
  H        19.9540305300       17.4694675500       23.2725725800
  H        18.1504579600       16.4393015400       22.3753351500
  H        19.0932741300       16.6321597500       21.1121239500
  H        17.2354815900       21.3403491200       21.7531631700
  H        17.8417281800       20.2818161700       20.6801613600
  H        21.9348640900       18.4404811400       23.5666125400
  H        23.5127491200       18.3065955800       23.1988275200
  H        19.5964367700       19.9456834000       19.4555148100
  H        18.7166507800       18.6809684000       19.1635169900
  H        21.2252204200       15.6759501000       22.4731763000
  H        22.6681083800       15.3090877900       22.5693989300
  H        20.9960306600       22.3932918700       22.6997975400
  H        20.7454186500       23.9320132900       22.4064698500
  H        19.2957758600       16.7403742400       18.3901463300
  O        18.3570952300       17.1093061600       18.1531806100
  O        22.4932906000       19.1262203200       19.0904670100
  O        16.5402168800       16.6313067100       22.3966421700
  O        20.3505481200       21.3270418600       19.5029254100
  O        16.0939295900       17.9554989600       19.8891105100
  O        22.3438007000       21.5251248800       23.3858933900
  O        18.4038793400       21.5713771000       23.4481569000
  O        20.9453147600       16.3140741200       18.7330760300
  O        20.2634244300       18.2125796100       23.8509081700
  O        19.1197331000       16.3534098700       22.0455570000
  O        17.0707190800       20.8444371700       20.9392164100
  O        22.8620536500       18.8845363500       23.6979436700
  O        19.2389386100       19.1040344700       19.8486177100
  O        22.0988747800       15.8438166700       22.0385291300
  O        20.3501730800       23.0619071600       22.2787915600
      45
 i =        1, time =        0.000, E =      -258.2821330575
  H        18.8804939700       16.9845857900       19.4662367000
  H        22.3732749500       19.4934457300       17.7945611900
  H        21.9828202700       19.8502820100       19.2056418700
  H        17.6590628000       16.9435443500       23.7754021000
  H        17.5027991300       16.5964796000       22.1438043000
  H        18.2916747800       21.2077855000       18.4009158300
  H        19.0524777000       21.6392723400       19.7784657900
  H        16.6553172000       16.6393559500       20.1744990500
  H        16.1765665000       17.7988259300       21.1878052400
  H        20.8203905600       22.2796712900       24.0795310800
  H        21.6906557000       21.8276815000       22.7993097400
  H        18.6590110500       20.1935364200       22.7805354900
  H        17.8636835300       21.4559718400       22.5703516100
  H        22.4096765500       17.4568374000       19.4425032300
  H        21.0045994400       17.3148871600       19.7273854900
  H        22.4024557100       17.9250261600       24.1794521900
  H        22.2581393600       17.1619068600       22.8802303500
  H        19.4643675400       17.7424764800       22.7379919000
  H        20.9345033400       18.5169194100       22.6396050700
  H        16.7316580300       19.9534124600       21.5045408200
  H        15.1573221400       19.7575372000       21.4455303400
  H        23.1979632800       19.8907581000       22.9568518600
  H        24.1551691500       21.1670770900       23.0603177300
  H        19.7116727100       19.4029072800       19.3626520500
  H        19.8914604500       18.6535587200       20.7001628300
  H        20.6443399700       15.3869062700       22.1540615200
  H        21.6566614500       16.0895978600       21.1843428400
  H        18.3258562200       23.5928526300       21.2296812900
  H        19.6611556100       22.9723238300       21.7821758800
  H        18.4867284600       15.9148466900       18.2870604700
  O        18.3049357200       16.2242610900       19.2053725400
  O        22.6254594000       19.2971895900       18.7264772400
  O        18.1566921400       16.7309370200       22.9490856900
  O        19.0244246100       20.9408349500       19.0463426600
  O        16.3132463300       16.7924969800       21.1199319900
  O        20.8525063000       22.3592820200       23.0948563900
  O        17.7181238700       20.5248116000       22.9016746200
  O        21.7969528900       16.7726036300       19.8187824500
  O        22.5090925500       18.1003313300       23.2006485400
  O        19.9778225700       18.5165646800       22.4076343600
  O        16.0112028100       19.5973283900       20.9176360400
  O        23.2911338000       20.8482135700       22.7267206800
  O        19.6859869500       18.4698746300       19.7556497900
  O        21.6285052000       15.6859156200       22.1248975600
  O        18.8321526100       22.7657324700       21.2599634800
      45
 i =        1, time =        0.000, E =      -258.2739668490
  H        19.0542954200       16.6448554700       17.2113156500
  H        21.2266509700       18.6193879800       19.9100153700
  H        22.4616792600       18.3072016800       20.8693488600
  H        18.1828145600       15.0905086900       23.1523877100
  H        17.7840392300       16.0442626500       21.8787866800
  H        18.9074785000       21.7508173900       18.8773118900
  H        18.5328965200       21.7929094100       20.4137065400
  H        17.5988291600       16.7072349600       19.4255040200
  H        17.0907794000       17.8011349300       20.3807434100
  H        21.8959766500       22.4274702000       22.5213756000
  H        21.2092644500       23.3371183400       23.6136493000
  H        18.4368790600       19.8154215000       24.2337776900
  H        17.7988757400       21.1172421900       23.7336051900
  H        21.5635130100       15.6310207600       19.5482379400
  H        22.1724121600       16.9041973500       18.8745004000
  H        21.5737740000       19.0251722200       23.0152453800
  H        23.0534541100       18.8434651000       23.6052351100
  H        19.1151037500       17.4575788000       23.4684867200
  H        19.2917668800       18.7817218200       22.7330082100
  H        16.6474538900       19.6781857200       22.1910263100
  H        15.4346276500       19.6464250600       21.2714672300
  H        23.0341335500       20.5366436000       21.7510365300
  H        23.4033554300       21.6031562600       20.8692543800
  H        19.2882916800       19.7671804400       20.0513145100
  H        19.0542884800       18.3469018200       19.5194147600
  H        20.2059847800       16.1763918500       21.7707321900
  H        19.8508055100       16.5555669600       20.3339360300
  H        18.1152247700       23.2633302200       22.1506781000
  H        19.4453148300       22.4664175000       22.3661742400
  H        20.1950697900       16.3170192300       18.2962429700
  O        19.2291689600       16.6175572800       18.1854988300
  O        22.1708061200       18.3782389400       19.9491817500
  O        18.0629888300       16.0012936600       22.8479868100
  O        19.2031432900       21.4814165300       19.7412542600
  O        17.2440592000       16.8691313400       20.3322367700
  O        21.0732679900       22.9079967300       22.7591055200
  O        17.5992358500       20.3381576200       24.2731487900
  O        21.8713666300       15.9732789100       18.6457195900
  O        22.5447094300       19.0684788500       22.7496592600
  O        19.7132643300       18.2192669700       23.3978346200
  O        16.4070007700       19.4000455700       21.2834875200
  O        23.4787785700       21.4302294800       21.8005267400
  O        19.4721521500       18.8049513800       20.2517857700
  O        20.3445940400       15.8277379800       20.8392105700
  O        18.4445559700       22.3939244000       22.2868702500
      45
 i =        1, time =        0.000, E =      -258.2913371307
  H        19.4873468200       16.5115608900       18.2140830800
  H        20.9988385800       19.6857882900       20.2224902900
  H        22.2469492100       19.7803561300       21.0992328800
  H        17.9448511800       16.5132592400       22.1392307900
  H        18.3169655700       15.9240871500       20.7826455800
  H        21.3537467400       23.1637576100       19.4741701400
  H        21.0323901800       21.6327326100       19.7948413000
  H        15.5850442300       17.9815844900       18.1070535700
  H        16.6434542700       18.7184845700       19.1177493500
  H        20.3291155900       20.5296021600       24.9683582500
  H        21.4349407900       20.6348222300       23.8826086400
  H        17.5436705800       19.7742881600       23.0707094700
  H        17.6174697300       21.1779527200       22.6013134400
  H        22.1704602900       17.9816399200       19.5875331400
  H        23.2744555100       17.1023089700       19.0043070300
  H        21.9134034800       16.7682180200       22.9713381300
  H        23.0184264200       16.3195489800       24.0219474700
  H        19.4513932600       17.6558963400       23.5916115800
  H        19.2331346400       18.4167649400       22.2590952000
  H        16.9876901600       21.1440065500       19.5177860000
  H        16.8442903200       20.2236938200       20.8073495600
  H        22.6095748500       18.7998415100       23.6279857100
  H        23.5650369900       19.9835480000       23.3140572300
  H        18.4701541400       19.3823306000       20.1719061500
  H        19.2954834400       18.0571358200       19.9997219100
  H        21.4551395400       16.0975611800       20.4365189000
  H        20.1989874600       15.7277316600       21.3664457000
  H        19.4150165600       22.6476384900       21.6826795200
  H        19.3063782500       22.3672512900       23.2176467000
  H        18.0120735300       17.0692010000       18.6677403100
  O        18.9190803800       16.6969288500       18.9682333800
  O        21.9287544900       19.9845896000       20.1739918100
  O        18.2789443700       15.6905358600       21.7447885700
  O        20.6140781700       22.5288873700       19.7941348700
  O        16.4725249900       17.9155211700       18.5296370000
  O        20.7769028800       21.1917675800       24.3626519600
  O        17.0113658600       20.3819681500       22.5534967100
  O        22.3404989700       17.1398770300       19.1084463000
  O        22.4546181000       17.0671119100       23.7991921000
  O        18.7528857500       18.1965276300       23.1232816000
  O        17.1020760700       20.2153111800       19.8211341700
  O        22.6900226600       19.6668301000       23.0973497300
  O        19.2408225400       18.8758212900       20.5544630100
  O        21.2532936700       15.9655703400       21.3802808900
  O        18.7629634900       22.3635190300       22.3524199500
      45