       6
 i =        1, time =        0.000, E =       -34.4086427613
  H        17.0731304300       21.4040914500       21.7177119000
  H        19.1308677400       17.7946717500       19.2330411600
  H        18.1316181000       18.1009896700       20.2927338200
  H        16.8093933300       19.9079610200       21.1651735600
  O        17.2745106000       20.4160092700       21.8967867300
  O        18.3634798800       18.3609882500       19.4028950500
       6
 i =        1, time =        0.000, E =       -34.4127030138
  H        17.5254175900       21.1502775800       21.8473261700
  H        19.2609630200       17.9405557500       19.4610247000
  H        18.0916753100       18.5390911200       20.2487477300
  H        16.5644852300       20.3069717700       21.1381256000
  O        17.1877516500       20.2673803400       21.9323656200
  O        18.4314931700       18.4636758300       19.3492615300
       6
 i =        1, time =        0.000, E =       -34.4121432633
  H        16.0162972800       20.4165505100       21.9425340700
  H        18.0055329000       18.7879534000       18.7858884400
  H        19.1049852300       19.2882326200       19.7535075600
  H        17.0920361100       19.3145647900       22.2273613900
  O        16.9667629400       20.2677551500       21.9219231100
  O        18.7295791400       18.4714660100       19.3588177400
       6
 i =        1, time =        0.000, E =       -34.4120779221
  H        16.2815724000       20.5326635200       22.1114723200
  H        17.9661893700       18.1704668400       18.6234508500
  H        18.1146728000       18.9012782700       20.0250420900
  H        17.5551602000       21.3742660700       22.0568523800
  O        17.1924916300       20.5228705800       21.7890568500
  O        18.5228308200       18.1425494500       19.4849094300
       6
 i =        1, time =        0.000, E =       -34.4096661974
  H        17.2030566100       21.3764173700       22.1861947500
  H        18.2167321300       19.1288388600       19.6038277100
  H        17.6339529300       17.8054639200       19.4246420600
  H        18.0928982200       20.3107601400       21.9295147400
  O        17.1193964900       20.4748832000       21.7836136600
  O        18.5184912800       18.2130414700       19.4697275400
       6
 i =        1, time =        0.000, E =       -34.4166473504
  H        16.3589687000       20.2259852700       21.7545472200
  H        18.7368863300       19.3274693500       19.0027679200
  H        18.1612563200       18.8532210700       20.2572108000
  H        17.4443112600       20.1562533600       22.7828171600
  O        17.3246388400       20.1889735400       21.8277222500
  O        18.3412993700       18.5026400900       19.3844670600
       6
 i =        1, time =        0.000, E =       -34.4092527163
  H        16.5599207000       21.1358003300       21.9128964800
  H        18.0913981100       19.2136926700       19.2094809600
  H        18.2088369000       17.8944897100       19.9965601300
  H        16.6259318100       19.5784810800       22.1173006400
  O        17.1599637900       20.3600917600       22.0481383600
  O        18.5825453100       18.3781741000       19.1994027700
       6
 i =        1, time =        0.000, E =       -34.4159560557
  H        18.1028582000       20.5330159700       21.4553702000
  H        17.9385122300       18.8280577600       18.6898353700
  H        17.7528779200       19.1722926700       20.1356424600
  H        17.5228718300       19.3018069000       22.3388234300
  O        17.2915826400       20.0733207700       21.7349564800
  O        18.3355642000       18.6641443400       19.5514307800
       6
 i =        1, time =        0.000, E =       -34.4127615210
  H        17.0111512000       20.8831551100       21.6324019700
  H        17.5352622000       18.9060971800       18.6612748200
  H        18.2001085200       18.7776797200       20.0920041100
  H        18.3248569400       20.3328873700       22.2003813400
  O        17.3441491600       20.1598580800       22.1530709400
  O        18.2984803500       18.5105301400       19.1354338300
       6
 i =        1, time =        0.000, E =       -34.4133780737
  H        16.5847980000       20.7277068300       21.7757998200
  H        18.4347202800       19.5795485800       19.0199256400
  H        18.0072223600       18.7245495100       20.1408836000
  H        17.4956737700       20.0073181600       22.8956935200
  O        17.3096523500       20.0547307200       21.9545316800
  O        18.3675640800       18.6068808100       19.2554550500
       6
 i =        1, time =        0.000, E =       -34.4121866401
  H        16.9352069000       19.9927580500       22.8467243200
  H        18.2119147000       18.3424503800       18.2361667200
  H        18.7935025500       19.1188885400       19.3855285700
  H        17.5196807900       19.7307997100       21.4575306300
  O        17.3912526300       20.4737427800       22.1194126900
  O        18.2268730000       18.3046923200       19.2106817400
       6
 i =        1, time =        0.000, E =       -34.4156416459
  H        17.1324687200       21.4356741400       21.2213914900
  H        19.1924497700       17.6729778800       19.8682317600
  H        18.1839504000       18.7770618200       20.3938495500
  H        16.4280907800       20.1131226500       21.5142317000
  O        17.2897538100       20.5776562700       21.6002290000
  O        18.3613446300       18.1494974100       19.6623406900
       6
 i =        1, time =        0.000, E =       -34.4102259625
  H        16.3106583800       20.2768142700       21.4320190100
  H        18.8915100200       18.7220651800       20.0355741200
  H        19.4128499000       17.8204312400       18.9349163300
  H        17.6190216900       20.9162148700       21.9605444600
  O        16.8882278200       20.2805888800       22.1808659100
  O        18.6811494500       18.4631544300       19.1216892700
       6
 i =        1, time =        0.000, E =       -34.4130216728
  H        16.2971093000       20.2258505500       22.2238420200
  H        18.2514979500       18.9124722600       18.7522534300
  H        17.9383758300       18.7179541100       20.2295117500
  H        17.7704713700       20.3637216600       22.4956560700
  O        17.1453849700       20.3939760900       21.7427251400
  O        18.5485249800       18.3192435200       19.4755175800
       6
 i =        1, time =        0.000, E =       -34.4072131850
  H        17.4725877000       21.1887097900       21.6811206100
  H        17.9952427900       19.2486265900       19.7902977000
  H        18.9609741700       18.2386799800       19.9139635300
  H        16.9142772000       19.7289053000       21.2331815900
  O        17.3741000000       20.2428893700       21.9487332600
  O        18.2514111400       18.4586793500       19.3377238100
       6
 i =        1, time =        0.000, E =       -34.4078762335
  H        16.9782813700       20.8950797800       21.7873007600
  H        17.9984105800       19.2833901900       19.0331253200
  H        18.3856089000       19.3270009300       20.3215653400
  H        17.4430663600       19.5768967300       22.4256860700
  O        17.2065675800       19.9868994600       21.6072734400
  O        18.4528217000       18.6719875000       19.6193857100
       6
 i =        1, time =        0.000, E =       -34.4109599505
  H        16.8426587000       21.2644556800       21.6896088300
  H        18.4858472800       19.2408959300       19.2655077800
  H        17.6124678900       18.1345866300       19.9077600200
  H        16.7665783500       20.1153094000       22.6704179500
  O        17.2570846200       20.4041464600       21.8303571500
  O        18.4714713400       18.2753503500       19.3984682600
       6
 i =        1, time =        0.000, E =       -34.4097388689
  H        17.0602749000       20.9535413800       21.6575539600
  H        18.4990178600       19.3050644200       18.8805880900
  H        17.7927685200       18.3610866800       19.8675146400
  H        17.6345507600       20.8799551900       23.0592192500
  O        17.4699590800       20.2991026900       22.2868549600
  O        18.1780110700       18.3334939800       18.9462810900
       6
 i =        1, time =        0.000, E =       -34.4072084238
  H        17.4457385700       21.1275081300       21.7764832900
  H        18.1186669100       18.4539141300       18.5508213800
  H        18.3393483700       19.3612263300       19.7886094900
  H        16.7239049300       19.9361301100       21.2222354000
  O        17.4407757800       20.1814559500       21.8801273600
  O        18.2298098400       18.4902579100       19.4870008300
       6
 i =        1, time =        0.000, E =       -34.4160862293
  H        17.4486117100       21.0279583900       21.8443394100
  H        18.8950749100       18.9378755100       19.0925694100
  H        18.0577436200       19.1330013300       20.4578095300
  H        16.7729299800       19.6095124600       22.0605753100
  O        17.1127553900       20.2246058200       21.3658511000
  O        18.5233858900       18.4578458700       19.8678886800
       6
 i =        1, time =        0.000, E =       -34.4158893884
  H        16.8441689900       20.6393381900       21.2695447400
  H        18.6755490700       19.7637767000       19.2607634400
  H        18.2505512200       18.8960479600       20.4115185300
  H        16.4037908000       19.2867589300       21.8718350600
  O        17.2043270000       19.8892210200       21.8265858000
  O        18.4948371200       18.8009439900       19.4475793100
       6
 i =        1, time =        0.000, E =       -34.4100258355
  H        17.0098168000       20.2262243700       21.4144912700
  H        17.6225113700       19.0872972100       18.5552535900
  H        19.0230914200       18.4897658300       18.9971555000
  H        17.7744777300       19.3771259900       22.3299505400
  O        17.5437641400       20.2928107600       22.1769556700
  O        18.0762772900       18.4859068000       19.1927745000
       6
 i =        1, time =        0.000, E =       -34.4148922909
  H        16.6061210100       20.3547385400       21.7569632400
  H        18.1636713600       19.1320954000       20.2332364700
  H        17.9159431700       17.7327828700       19.7477008600
  H        17.7064230300       19.7647766200       22.6205563700
  O        17.5510027100       20.2191849300       21.7606643800
  O        18.1344203500       18.5718826600       19.4161725500
       6
 i =        1, time =        0.000, E =       -34.4088950108
  H        16.7523131600       21.4366454900       21.7773277400
  H        18.1120342200       17.3748192400       18.9825278400
  H        18.0327523100       18.8376400400       19.0834825000
  H        17.8486620700       20.7694070000       22.5245784100
  O        16.9626137000       20.5921625400       22.1585701900
  O        18.7005309700       18.1085499500       19.1436786300
       6
 i =        1, time =        0.000, E =       -34.4104150131
  H        16.9129845000       20.6242913400       22.8621490500
  H        17.7223242700       18.2919602300       19.2302316700
  H        18.8804718900       18.1146390800       20.2151361800
  H        16.6251101600       21.6673281000       21.6863837300
  O        17.1171292500       20.8489491400       21.9045029600
  O        18.5841246600       17.8341407100       19.2953024600
       6
 i =        1, time =        0.000, E =       -34.4097193160
  H        17.9688097400       20.0587807400       21.7559298700
  H        18.4888982100       19.5140084000       18.9166387600
  H        19.3864737800       18.5872300200       19.9058907500
  H        16.6306349800       19.4054647200       21.3318246600
  O        17.0011929100       20.1441964900       21.9117917100
  O        18.5530144900       18.6102601100       19.4192897500
       6
 i =        1, time =        0.000, E =       -34.4158034449
  H        16.4633068100       20.5529473900       21.7585166500
  H        18.8276816400       19.1241059900       18.7968083300
  H        18.9497183900       18.1034746500       19.9797347400
  H        17.3515950800       19.5900268700       20.9090420600
  O        17.2997827400       20.0498390900       21.8452121200
  O        18.3100265600       18.7168988200       19.5152406600
       6
 i =        1, time =        0.000, E =       -34.4131244680
  H        16.6150036100       19.5945976100       22.2118070000
  H        18.9323080900       18.9969841900       18.7994561000
  H        17.9605197200       19.2442685900       19.8525493100
  H        18.1690325700       19.8416224800       22.0429076700
  O        17.2534997300       20.2509934500       21.9277286100
  O        18.3509818300       18.4964074100       19.3405734600
       6
 i =        1, time =        0.000, E =       -34.4150116512
  H        16.9141020300       20.9829590500       22.0771856200
  H        18.2356241300       19.1412400800       18.7655091000
  H        18.3101210900       19.2228713800       20.2084003000
  H        17.5033439800       19.5990442400       22.4463261600
  O        17.1583235000       20.1120392100       21.6954433800
  O        18.4911222500       18.5554322200       19.5356421900
       6
 i =        1, time =        0.000, E =       -34.4106576761
  H        16.8831614300       19.3227771800       22.1146218500
  H        18.5097585100       18.2654911100       18.6502752400
  H        17.8745802300       19.3145747300       19.5754533300
  H        17.9244427800       20.4543400100       22.3724123000
  O        17.1747119300       20.2354824400       21.7465759900
  O        18.4603215600       18.5320979500       19.5339461500
       6
 i =        1, time =        0.000, E =       -34.4095835429
  H        16.2677851600       20.3792032800       21.7818134100
  H        19.2577328000       17.8895025600       18.8149875900
  H        18.8075293500       19.0499402100       19.5589696800
  H        17.2034809500       20.2371480600       22.9598884500
  O        17.1593013900       20.5474548700       22.0326494900
  O        18.4540218700       18.2076122300       19.2224886000
       6
 i =        1, time =        0.000, E =       -34.4153626532
  H        16.0828761000       20.1805416500       21.3020685600
  H        18.5120793400       18.6164448000       18.7712379400
  H        17.9792929100       19.2303971300       20.1366218500
  H        16.9612515800       19.9298666500       22.4875620600
  O        17.0323377600       20.0658172300       21.5415652400
  O        18.7070581700       18.6639565500       19.7399191200
       6
 i =        1, time =        0.000, E =       -34.4148929072
  H        16.5744259200       20.0839458200       21.4746656900
  H        18.5994864400       19.1516657900       18.6877652700
  H        18.1098802400       19.5205809300       20.1505893400
  H        17.4829856100       19.2333567000       22.4301327500
  O        17.4801067100       19.9550910900       21.7594322800
  O        18.1817138300       18.7726477300       19.5191751600
       6
 i =        1, time =        0.000, E =       -34.4136787688
  H        17.1671134200       21.2307680400       22.0224239700
  H        18.0833205900       17.6167809500       19.5157873000
  H        18.1845500400       18.9745833000       20.3428824000
  H        16.9919582200       19.7609880800       22.4061399900
  O        17.1191108900       20.2953312200       21.6042683400
  O        18.5641206600       18.4580142200       19.5770559400
       6
 i =        1, time =        0.000, E =       -34.4142617383
  H        16.3855139300       20.4480141000       21.9243908100
  H        18.9058567900       18.2759407000       18.7084195700
  H        18.0732925900       19.0274478300       19.7257870200
  H        17.7840942700       19.8043788500       22.0072307000
  O        17.3160103300       20.6416663500       21.8396226300
  O        18.3217440100       18.1134015500       19.4627577700
       6
 i =        1, time =        0.000, E =       -34.4162073530
  H        18.2949331400       20.4195317200       21.8718442600
  H        17.9546241400       17.8123939400       19.3876599500
  H        17.7953333200       19.2237153000       20.0715032400
  H        17.2195939300       19.5598071500       22.6838822200
  O        17.3681146100       20.0730626800       21.8670297700
  O        18.2623484800       18.7160483400       19.3314532500
       6
 i =        1, time =        0.000, E =       -34.4128213828
  H        16.6596542600       20.8372612100       21.2665410900
  H        17.8457300500       18.1512375400       18.8568231600
  H        19.4326279600       18.4223777200       19.2110531200
  H        17.7032585900       19.6893397200       21.2725637100
  O        17.0966674700       20.2316964500       21.9000103500
  O        18.5100565900       18.5520738600       19.5131843300
       6
 i =        1, time =        0.000, E =       -34.4138213299
  H        16.3063217400       20.4679176000       21.9338681700
  H        17.9174183800       18.5893842600       18.6204241900
  H        18.1252532600       19.1616546300       20.0187555700
  H        17.4881822000       20.1857263700       22.7463850400
  O        17.2291997100       20.2503720800       21.8435657400
  O        18.4911894700       18.4512116800       19.3987337900
       6
 i =        1, time =        0.000, E =       -34.4131577577
  H        16.7602308700       20.4238283600       22.6414003600
  H        17.9407449800       19.1816954000       18.7586468300
  H        18.2533469800       18.5475811800       20.0814219700
  H        18.2194593400       20.4011132000       22.7106234700
  O        17.5274098100       20.3829508100       22.0557463500
  O        18.1087678900       18.3092116400       19.1315721800
       6
 i =        1, time =        0.000, E =       -34.4161082421
  H        18.3346534800       20.9817818300       21.4996481600
  H        17.2261946000       18.0013877800       19.5780269500
  H        18.2253962100       18.8264060600       20.3667720100
  H        16.8392550900       21.1559060100       21.5052751700
  O        17.5074946200       20.4549372100       21.6415449900
  O        18.1632270500       18.2113140200       19.6240477700
       6
 i =        1, time =        0.000, E =       -34.4170033376
  H        16.5527842400       20.6488000600       21.7349291400
  H        18.8042103000       19.5303828900       19.0087095700
  H        17.9671585700       19.1357296600       20.1499460100
  H        16.8455250300       19.4240089000       22.5163506900
  O        17.2103296600       19.9505781400       21.7853707600
  O        18.4891105400       18.7299472700       19.4512267600
       6
 i =        1, time =        0.000, E =       -34.4108889144
  H        16.5810580600       20.5730374900       21.9436006600
  H        18.7927080000       19.4536411400       19.1129618800
  H        18.0273702900       19.1198006500       20.2398129500
  H        17.1893067400       19.1640689600       22.3139162700
  O        17.4547236900       19.9773648300       21.8532361500
  O        18.2182066600       18.7301497900       19.3707381400
       6
 i =        1, time =        0.000, E =       -34.4102493463
  H        17.8834110300       21.1277209700       21.8820534400
  H        17.3262122700       18.2475237100       19.5536025800
  H        18.6512876900       18.5601773500       20.3915231900
  H        16.5883768800       20.8215127400       21.4043719600
  O        17.3467824500       20.3526106400       21.7732045800
  O        18.3350412400       18.3267798700       19.4746318500
       6
 i =        1, time =        0.000, E =       -34.4110421265
  H        17.2176283700       19.9174610300       21.1276354600
  H        19.1947857900       18.0015916500       18.8955005400
  H        18.3921814500       19.2511781600       19.2668811600
  H        17.2552381500       19.8622958500       22.6477062800
  O        17.2008895200       20.4827895900       21.9296194400
  O        18.3794634400       18.3052454200       19.3997332300
       6
 i =        1, time =        0.000, E =       -34.4100049349
  H        16.5061801700       20.5860887400       22.7909949700
  H        19.0782197400       19.3853603600       18.7450351300
  H        17.7922657500       18.8289216800       19.5215674400
  H        17.3021055400       19.2050285600       22.8268948800
  O        17.2133592600       20.0874884300       22.3598436300
  O        18.4540060700       18.6392517700       18.8468549300
       6
 i =        1, time =        0.000, E =       -34.4138268411
  H        17.7864709500       21.4410822200       21.9053164700
  H        17.4529048600       17.9494489400       18.8855517300
  H        17.7830454000       18.7849630100       20.0563117800
  H        16.8116051200       20.4259872200       22.5606870400
  O        17.4922022500       20.5086909200       21.8378414000
  O        18.2283853300       18.1804937600       19.3988864400
       6
 i =        1, time =        0.000, E =       -34.4148480664
  H        17.4909705300       21.3342681500       22.0818939900
  H        17.7036672800       17.8581228400       18.9970318500
  H        18.0000929700       18.9265155200       20.0879738200
  H        17.5801220000       19.8331141300       22.5227947800
  O        17.2214032400       20.4065174300       21.7698036000
  O        18.4399085800       18.3235858400       19.4491680000
       6
 i =        1, time =        0.000, E =       -34.4128891305
  H        16.3738023000       20.9442681300       21.8837914000
  H        17.8381126800       18.7369845100       19.2074115400
  H        18.5560857400       18.5238736200       20.4729865200
  H        17.8447701400       21.0187413600       22.2543884300
  O        17.2061003500       20.5445921900       21.6410284400
  O        18.4654232700       18.1053797200       19.5698229900
       6
 i =        1, time =        0.000, E =       -34.4117950191
  H        17.3604103800       19.9279260800       21.3198617700
  H        18.0218551000       19.2818208600       18.9913109300
  H        19.2523551000       18.6020332800       19.4685239600
  H        16.7583540500       19.7479339500       22.6779320100
  O        17.2776579100       20.3911254000       22.1560743800
  O        18.3447098000       18.3636947200       19.1405222200
       6
 i =        1, time =        0.000, E =       -34.4109210044
  H        17.4307999700       21.1447303000       22.5658128800
  H        17.8848122600       18.2387435900       18.4744729400
  H        18.5037201000       19.2153464100       19.4668022200
  H        16.7973707700       19.7596174900       22.5491776900
  O        17.2524322600       20.4346095400       21.9529524700
  O        18.4188436100       18.2698878500       19.3059276400
       6
 i =        1, time =        0.000, E =       -34.4135247581
  H        16.3665308500       20.0078150500       21.8415676500
  H        19.0647372000       19.1282021100       19.6598205600
  H        17.7787476300       18.7508368500       20.1647955200
  H        17.6463518300       19.5742738500       22.5917562500
  O        17.3533965800       20.0978405700       21.8548618600
  O        18.3027794800       18.6631908800       19.3283080300
       6
 i =        1, time =        0.000, E =       -34.4056924308
  H        17.8032260400       21.6225886300       21.6608429700
  H        18.7847628500       17.4354689100       18.5301083200
  H        18.5828741300       18.7816815800       19.2584423500
  H        16.4297204600       20.8868948200       21.9333254100
  O        17.3923738500       20.8073024400       22.0811960000
  O        18.2169136800       17.8739971400       19.2831241400
       6
 i =        1, time =        0.000, E =       -34.4119413071
  H        16.8137840100       19.3060816300       22.3519644800
  H        18.5326847400       18.8962752800       18.3244931900
  H        19.0022965100       19.2611020500       19.7295748200
  H        16.1204285800       20.6621480900       22.3980576200
  O        16.9625067500       20.2373109400       22.0800777500
  O        18.7180627800       18.4818557000       19.1946904100
       6
 i =        1, time =        0.000, E =       -34.4112005732
  H        16.4393149000       20.3668547800       21.6460272700
  H        17.7262008300       18.4376700500       18.5450497300
  H        18.2134763600       18.7499780100       20.0280640100
  H        17.3998360000       19.7567236000       22.6330280000
  O        17.3080024300       20.5336030200       22.0249835900
  O        18.4160628600       18.2368728100       19.2467554100
       6
 i =        1, time =        0.000, E =       -34.4136542835
  H        16.3629013800       20.1704494200       21.5848593300
  H        18.2600610200       18.9903425000       18.7818589000
  H        18.4045631700       19.0538464600       20.3843959800
  H        17.4909570700       20.0675420100       22.5971768900
  O        17.3076248600       20.3239260400       21.6668194900
  O        18.3698392800       18.3853758700       19.5736618700
       6
 i =        1, time =        0.000, E =       -34.4153108175
  H        16.9690054400       20.9397256100       21.2038798400
  H        17.7727739600       18.6264559400       18.8028431600
  H        17.9888270900       19.0469142800       20.3027912900
  H        18.3136335500       20.9242863400       21.8110329300
  O        17.5332056200       20.3414076500       21.6618020600
  O        18.1111337400       18.2888116000       19.6560319900
       6
 i =        1, time =        0.000, E =       -34.4129279603
  H        17.5337762100       20.9822697300       22.6433606500
  H        17.7425416900       17.8732192200       19.4650361900
  H        18.4940003500       19.1844651700       19.8584946400
  H        16.3355723600       20.1276356500       22.0636016700
  O        17.3026441100       20.2134620700       22.0282042800
  O        18.4008149600       18.5030594900       19.1692956600
       6
 i =        1, time =        0.000, E =       -34.4148512029
  H        16.4644342800       20.6244618400       21.8005905900
  H        18.8671464800       18.2739522400       18.8702315300
  H        18.3958598500       19.1476782100       20.0080533900
  H        17.7693350700       20.1217818800       22.4859725400
  O        17.3942344200       20.4316047700       21.6354818100
  O        18.2215934100       18.2848988800       19.6165571800
       6
 i =        1, time =        0.000, E =       -34.4091245135
  H        17.9615979900       20.9909933100       21.6801762500
  H        17.8096194500       18.5253714000       18.5271711300
  H        18.2215675100       18.6915118000       20.0501198500
  H        16.9360481500       21.0974939100       22.6818287200
  O        17.2540761900       20.4630512000       22.0596131500
  O        18.3975342700       18.1817857000       19.2066365100
       6
 i =        1, time =        0.000, E =       -34.4149367510
  H        17.2405124100       21.0495910900       21.7653957100
  H        18.9437139500       18.5404103300       19.5208551000
  H        17.8471809100       19.2640806400       20.1891601500
  H        17.6639663600       19.9090459800       22.6646558100
  O        17.6303802200       20.1473483900       21.7144367600
  O        17.9729351600       18.5316519200       19.4761596100
       6
 i =        1, time =        0.000, E =       -34.4147016048
  H        16.7913771700       20.6959933600       21.6950667800
  H        18.0465718600       19.5209562400       18.7678591900
  H        18.2282076300       19.0362280900       20.3016936100
  H        17.0131234000       19.7650124400       22.8258903900
  O        17.1901356800       19.8002411200       21.8665128700
  O        18.5149999600       18.8626892700       19.3587077400
       6
 i =        1, time =        0.000, E =       -34.4134811617
  H        17.9687537800       20.6085615800       22.3776066800
  H        17.5635834200       19.0631432700       18.9767667700
  H        18.1564415400       18.9589829300       20.4783995700
  H        16.5610899300       20.3898990800       21.6367976100
  O        17.5249242200       20.1096655500       21.6602063100
  O        18.1694636600       18.5531138400       19.5726339600
       6
 i =        1, time =        0.000, E =       -34.4139555781
  H        17.6732179500       20.6952221600       22.4232718100
  H        17.9577207200       19.4072126900       19.9186472900
  H        18.8867909500       18.6919438300       18.8384976000
  H        17.5834944400       19.2613892000       21.6256136800
  O        17.2733359700       20.2039002300       21.6683374000
  O        18.3044092400       18.5196665600       19.6063085200
       6
 i =        1, time =        0.000, E =       -34.4094200485
  H        17.1564618700       21.4519808100       21.5688688800
  H        18.0385180800       18.4551696000       18.7448050200
  H        17.9546142300       18.7073711600       20.3315612000
  H        16.5511656200       20.0561881000       22.0096836400
  O        17.2944938400       20.4938203500       21.6169567000
  O        18.4344900600       18.1910026800       19.6672098400
       6
 i =        1, time =        0.000, E =       -34.4117989946
  H        16.6127514100       19.3319964600       22.1637719600
  H        17.9048232500       18.8862019400       18.5292942700
  H        18.2918432600       19.6339580500       19.8288822100
  H        18.1264637200       19.5695906800       22.3451141400
  O        17.2732363500       19.9892092200       21.9120033600
  O        18.3779300100       18.7743033700       19.3587972900
       6
 i =        1, time =        0.000, E =       -34.4116966039