      27
 i =        1, time =        0.000, E =      -154.9702201660
  H        16.9912695800       17.1244997700       18.8569424300
  H        19.9268946500       20.0438427800       17.6704560400
  H        20.2553108000       19.5473150700       19.1655106300
  H        23.7730719700       18.2449418100       20.1271471800
  H        22.5446568400       17.5618358700       19.4386862900
  H        19.6440945500       20.0394106200       22.1109205100
  H        19.0060126200       21.4934145900       21.9910346700
  H        19.2253721600       17.5415496400       19.0352399200
  H        20.0032861400       17.9053572700       20.3566438900
  H        23.1683819200       20.7623402300       20.5283518900
  H        23.6986163700       20.8617512400       22.0688838900
  H        20.9866562600       18.4378551100       23.0370434100
  H        21.8005192500       19.1920944400       21.9578685700
  H        18.3364227600       20.5233038300       19.1863355100
  H        17.6699230900       20.1440051700       20.5850855000
  H        22.0324754300       21.0772213600       18.8378841100
  H        23.1341592100       19.9892461700       18.8448255900
  H        17.4263555800       18.6068930200       18.8476777600
  O        17.6510525000       17.7242964400       18.4837050700
  O        20.2070736100       20.3738861700       18.5465639500
  O        23.4158779300       17.9766960200       19.2469510200
  O        18.7899307400       20.5286869300       22.1843366400
  O        20.1070394900       17.8924320500       19.3863066400
  O        23.0254559000       20.3754857100       21.5463623800
  O        21.0832428300       18.5008377900       22.0817826200
  O        17.4923217200       20.2309487200       19.5818902600
  O        23.0206870700       20.9654028600       18.8932307100
      27
 i =        1, time =        0.000, E =      -154.9680997409
  H        16.9470901600       17.7470531000       18.0600121100
  H        20.0522534700       20.6898361300       17.5070976600
  H        20.0505933000       19.7757734500       18.7877434400
  H        23.0284279500       17.8754265600       19.9059198100
  H        22.1914097400       17.8941798400       18.6992992800
  H        19.4118504100       19.4614500200       22.7270545600
  H        19.7043422200       20.7696972200       21.9904550900
  H        19.2854624400       17.9245357300       18.8083664100
  H        20.2932171600       17.9311225200       20.1724341300
  H        22.9820419700       20.3235454300       20.5408818600
  H        22.9333610100       20.6392032900       22.0582410200
  H        21.3347306900       17.4663858200       22.6092407700
  H        21.8718530000       18.7369427300       21.9284230300
  H        18.4462807000       20.7315737500       19.7242644000
  H        17.7363375400       20.0610651300       20.8893457600
  H        21.8455395800       20.9706804600       18.8945787300
  H        23.1763734700       20.3452981200       18.5426362700
  H        17.4759711200       18.9441974800       18.7973230000
  O        17.7727804700       18.2119244800       18.1901654600
  O        20.0665464100       20.7474544100       18.5239029800
  O        23.1294892600       17.8816261400       18.9652526500
  O        19.0437669100       20.3451405400       22.5800743900
  O        20.2641014200       18.0104756200       19.1671592700
  O        23.1924642000       19.8997808400       21.4835900700
  O        21.0319106300       18.2369023200       22.0648984700
  O        17.5804484700       20.3149762000       19.9421749500
  O        22.7651270100       20.9713567300       19.1601218100
      27
 i =        1, time =        0.000, E =      -154.9487842992
  H        17.0981959000       17.1687665300       18.5498669700
  H        19.9622767900       20.7106231900       16.9784123600
  H        20.2091840200       19.8020323700       18.1811557900
  H        23.1802833900       17.9865810400       19.8713955200
  H        21.9694905500       17.9902931400       19.0100732200
  H        19.3453073700       19.8302303800       22.3094246600
  H        20.3751958300       20.7729226600       21.8785596000
  H        19.3851006900       17.9545369300       18.9080943100
  H        20.3588993300       18.0836940600       20.2988674100
  H        22.9485222500       20.3484519700       21.0560631800
  H        23.6180007800       20.2581023700       22.5173612300
  H        20.9414844900       17.5298811000       22.9126461700
  H        21.4884585300       18.8424224300       22.4120902900
  H        16.7274177600       20.9088878200       19.9679079900
  H        18.1337282100       20.4644515300       20.6183455600
  H        22.0867005100       20.7600346600       18.7219735100
  H        23.2487524400       19.8466783600       18.8096508200
  H        17.4442288700       18.5333477100       19.1229210400
  O        17.7414991900       17.8763642500       18.4906493500
  O        20.4018254200       20.6957077400       17.8509196000
  O        22.9555329500       18.1285865600       18.9317174700
  O        19.3686482200       20.8019574900       22.1698530200
  O        20.2937754500       18.0549937000       19.2872935000
  O        22.8730999000       19.9721786000       22.0056677500
  O        20.7695385900       18.1853437900       22.1582697900
  O        17.5458309700       20.2862079800       19.8480169400
  O        22.9123772700       20.6495489200       19.2416127900
      27
 i =        1, time =        0.000, E =      -154.9516440489
  H        17.0855053100       17.4682681800       18.4709726900
  H        19.9584430800       20.9386906500       17.3498708300
  H        20.2027594900       19.7979879000       18.3140226900
  H        23.3419501900       18.3854475800       20.1539309200
  H        22.4645782600       17.7785833400       19.0766994500
  H        19.3141790200       19.6610450000       22.6601070100
  H        19.0514564400       21.1143465800       22.3608786900
  H        19.5530543200       18.0158322000       19.1596763300
  H        20.6335529900       17.7079150800       20.1751932300
  H        22.9931355900       20.3128557800       20.5312430000
  H        23.4866084900       20.7728547900       21.9327287600
  H        20.8820092000       17.8396462400       23.1778077600
  H        21.4700780400       19.1812797800       22.3409997300
  H        18.4484933700       20.8184079700       19.1240343700
  H        17.9098231300       20.3016179100       20.5460970000
  H        21.9320746800       20.9299061100       18.9581635400
  H        22.8152301200       19.6612904800       18.6321839400
  H        17.6306405900       18.8736970900       18.8647784400
  O        17.8288815000       18.0263175700       18.3700944000
  O        20.1720185000       20.8349080100       18.3092512200
  O        23.3828563500       17.8995143000       19.2568927300
  O        18.6163616700       20.2607175600       22.2930800400
  O        20.5151431400       18.0934571700       19.2909352800
  O        22.9344515400       20.0828581700       21.5316991800
  O        20.7972475500       18.4301910400       22.3967651500
  O        17.7612551800       20.3081421200       19.5346298100
  O        22.8128122600       20.6034088700       19.0192650800
      27
 i =        1, time =        0.000, E =      -154.9587805163
  H        17.2102436900       17.1439983200       18.6509962300
  H        20.3296363400       19.9399081700       16.8289101600
  H        20.7049465200       19.5309872300       18.3232624800
  H        23.1630759400       17.9360468700       19.9814334200
  H        22.2385557500       17.8628935800       18.8137075600
  H        19.0887869300       19.8678599000       22.7242271100
  H        18.1407943900       21.1645864000       22.6944535400
  H        19.6659467000       17.7782039000       19.1486226600
  H        20.2724227600       18.3072743500       20.3726608400
  H        22.6993004100       20.3578163400       21.0845962300
  H        23.0458785500       20.8978395300       22.3626211700
  H        20.8475451300       17.7492181700       23.0524834800
  H        21.5774521700       19.0202615900       22.3886338000
  H        18.2324791200       20.4940011300       18.7451200600
  H        18.1828881800       20.6611237700       20.2759618600
  H        22.2884548500       21.1818464600       18.6927449200
  H        23.2421895400       20.0038794000       19.1093521200
  H        17.5771456900       18.6509360900       18.8718939900
  O        17.7897876900       17.8339922500       18.3102637400
  O        20.4251998200       20.3241497900       17.7237901800
  O        23.2019464500       18.0071403800       19.0345184800
  O        18.7394539100       20.5978999000       22.1953001200
  O        20.5202262400       18.1817801700       19.4267555900
  O        22.8416913000       20.0373401000       22.0576553500
  O        20.7828651000       18.3826887100       22.3156488400
  O        17.6487497200       20.3224762300       19.5270540500
  O        22.9130573600       20.9157437100       19.3932109500
      27
 i =        1, time =        0.000, E =      -154.9533026436
  H        17.0672865100       17.4811914800       18.8709634700
  H        19.1939687500       20.2604865600       18.0813197800
  H        20.3815224000       19.5778457800       18.7689044400
  H        23.4113021300       17.6801832900       19.9844846400
  H        22.4600943900       17.5524970800       18.8841995900
  H        19.6242992100       19.8304885300       22.6398636000
  H        18.5642010700       20.8170020400       23.3954075800
  H        19.3112581500       17.8121947300       18.9847609500
  H        20.1374570800       18.3230042400       20.2811785300
  H        22.5518681400       20.4974943500       20.6358418300
  H        23.7814467700       20.5626520700       21.6026226800
  H        21.1491358700       17.7395969600       22.5055403700
  H        21.9813624200       18.9596545600       21.9998977800
  H        18.4637369800       20.8523884800       19.6623231000
  H        17.6434981000       20.4506077800       20.7405724800
  H        22.1861720600       20.6104307000       18.1448726800
  H        23.3066571900       19.5297184300       18.5516800700
  H        17.7685440600       18.8597733800       19.1237491700
  O        17.8451091300       18.0525319600       18.6049512900
  O        20.0986697200       20.4677641700       18.3841071100
  O        23.4007675100       17.6713078100       19.0308192700
  O        18.8222943300       20.4557934400       22.5209467300
  O        20.2527476600       18.0905900000       19.3160210500
  O        22.7869901800       20.3939582300       21.5969849600
  O        21.0486476700       18.6107605100       22.0306366200
  O        17.5586078200       20.4579401400       19.7720863900
  O        23.0191493700       20.4751121800       18.6812413900
      27
 i =        1, time =        0.000, E =      -154.9533943389
  H        16.8485110600       17.6403254500       17.8827262500
  H        19.9834396700       20.5221289000       17.4442093200
  H        20.3034921400       19.3306118900       18.4718610700
  H        23.3039244100       18.5918235000       19.4196333900
  H        22.2687204900       17.5685552700       18.9538955400
  H        19.6401647400       20.0958844400       22.1365098600
  H        18.4542417200       20.3261691800       23.0505490700
  H        19.1468021700       17.5841855500       19.0438320500
  H        19.9745108200       18.0908981100       20.2999731900
  H        22.9778916900       20.7393747000       20.8850914000
  H        23.5419750000       21.1962576700       22.2056244400
  H        21.2424079600       17.7390421500       22.3066592200
  H        21.6362653900       19.1702514900       22.3023849800
  H        18.7514608600       20.3678635100       19.2378868600
  H        18.1504960500       20.2251725600       20.6306705900
  H        22.0062174800       20.6744447500       18.7065433300
  H        23.3401866400       20.5566483700       17.9921835100
  H        17.5846622800       18.7489029400       18.9602444200
  O        17.5959985800       17.9293136100       18.4159691600
  O        20.2829893500       20.3070891800       18.3120599400
  O        23.2354387100       17.6403307300       19.0884768900
  O        18.9271600100       20.7907988500       22.3351603100
  O        20.1043311800       17.7804559100       19.3719074800
  O        22.8904378800       20.5823846600       21.8508929800
  O        20.8228421100       18.6257643100       22.1780458700
  O        17.9269775200       20.0888424300       19.6597734700
  O        23.0359991400       20.8191779800       18.9099656100
      27
 i =        1, time =        0.000, E =      -154.9707796953
  H        17.4101020100       17.3145782700       19.0986424800
  H        19.9000884600       20.6652718700       17.4288897900
  H        20.2516361400       19.9187279800       18.7332229200
  H        23.2990392300       17.9589614400       19.9057893000
  H        22.0315743300       17.9902606100       18.9913375200
  H        19.3885034300       19.3051819700       22.4110625800
  H        18.9086977100       20.6938295900       22.9687304600
  H        19.4148281800       18.0788649400       19.1086982100
  H        20.3978130900       18.0906331200       20.3287393400
  H        23.0482853600       20.3210283000       20.6689096300
  H        23.2495463000       20.8722382700       22.0625328600
  H        21.2239511900       17.6699202100       22.6746902300
  H        21.8867932800       18.9897770800       22.0884519500
  H        18.5207389500       20.6501073300       19.2002547200
  H        18.2022170600       20.2864418100       20.6983232600
  H        22.0042350600       21.1536382000       18.8457167200
  H        23.0211833100       19.9574813100       18.7550070700
  H        17.5043423900       18.8357186700       18.5852593500
  O        17.8283966900       17.9192570600       18.4576882200
  O        20.2948548200       20.8289401400       18.2781657900
  O        23.0561164500       17.9686287500       18.9428193900
  O        18.6230609300       19.9522938800       22.3507608600
  O        20.3388415900       18.3029758200       19.4146730700
  O        22.9265533700       20.0802851900       21.6301360100
  O        21.0449026600       18.3577275600       22.0310117600
  O        17.7640970200       20.3159334100       19.7869450900
  O        22.9133320200       20.8643179100       19.0647430500
      27
 i =        1, time =        0.000, E =      -154.9749416018
  H        16.7982804700       17.5376948400       18.2794148900
  H        20.1630635300       20.6926362100       17.4977920900
  H        20.3667708200       19.6326078800       18.5577261500
  H        23.4032806700       18.2055954000       19.8901106600
  H        22.4152620500       17.9783257200       18.7785015700
  H        19.4161462200       19.4605969400       21.9506556600
  H        18.4710949300       20.5154774500       22.5578700200
  H        19.4698095000       17.7524885200       19.1672900100
  H        20.3769329600       17.8641248900       20.3940721600
  H        22.9963868100       20.4566326000       20.8877681900
  H        23.1057373200       20.7247113100       22.4453358200
  H        21.0324260900       17.8785722300       22.9738160700
  H        21.6549484500       18.8650047100       22.0357580200
  H        18.0294328600       20.7298459200       19.0705885000
  H        17.8382534300       20.2676335200       20.4459342000
  H        21.9252719800       21.0301470800       19.1235756600
  H        23.1483357700       20.1056964200       19.1326196900
  H        17.5017977200       18.7472282000       18.9633285100
  O        17.6920278400       17.8808220800       18.4422146900
  O        20.3255257800       20.6393947400       18.4746491500
  O        23.3525794400       18.3215166000       18.9229127800
  O        18.9041258700       20.2635675700       21.7354105600
  O        20.4574623300       17.9661552400       19.3711072400
  O        23.1129966700       19.9598994700       21.8176600800
  O        20.8514074500       18.3051518400       22.1353619500
  O        17.3098157100       20.3101923000       19.6011216900
  O        22.8818922500       20.9630424800       19.4818390200
      27
 i =        1, time =        0.000, E =      -154.9508082911
  H        17.1459450600       17.4774455300       17.6920892400
  H        19.9690938000       20.7447317600       17.4681392900
  H        20.0055563000       19.6877352400       18.6127909200
  H        23.4899213900       17.4475957000       19.8131537800
  H        22.3877996800       18.0786773700       19.0644861800
  H        19.4728214600       19.8506524300       22.5415461300
  H        18.1317021500       20.4572922600       23.1697617200
  H        19.2252350200       18.0705018800       18.9323732600
  H        20.1200611200       18.2944503700       20.3234336500
  H        22.8455746400       20.4626780500       20.7174439900
  H        23.7219887400       19.4310429200       21.5637992200
  H        20.6729447700       17.6140747000       22.2942092400
  H        21.5508002900       19.0343986700       22.2513467800
  H        18.4376722500       20.6127578300       19.1914382000
  H        18.2592301900       20.1400764100       20.7417240800
  H        22.0710573400       20.9177643600       18.8520931700
  H        23.4302293000       19.9265469500       18.9967514800
  H        17.4541533800       18.7036203700       18.6353989900
  O        17.8893882600       18.0142500400       18.0539197400
  O        20.1441019600       20.7150024300       18.4284200300
  O        23.3926811200       17.9557375400       19.0401973700
  O        18.7861923400       20.5848064200       22.4005720700
  O        20.1246853300       18.1212362400       19.3452340100
  O        22.9478382800       19.9600670400       21.6277841000
  O        20.6508476200       18.5807025500       22.1528883300
  O        17.9328935800       19.9899262700       19.7944790800
  O        23.0016547700       20.7820772100       19.2200687500
      27
 i =        1, time =        0.000, E =      -154.9396716560
  H        16.7940654400       17.3076616700       17.9509429800
  H        20.8723648300       20.6366690500       17.2428968000
  H        20.5886401500       19.5813862600       18.3259742100
  H        23.2495362200       18.1697587800       19.9856333600
  H        22.0087122500       18.0059199900       19.0354015100
  H        19.5017651900       19.7507980300       22.4930826400
  H        18.4619522500       20.8960837600       23.0754957000
  H        19.6767136300       17.7211647300       18.7773161000
  H        20.0481070300       18.2242123500       20.1744990200
  H        22.6374107100       20.2410741400       20.8750990700
  H        22.0776338100       20.7136823200       22.3282401900
  H        20.8209045400       17.8994340400       23.0113272200
  H        21.4575306100       18.8522682400       21.9803371200
  H        17.8882967000       21.1639479800       19.5306409200
  H        18.1596534000       20.1901959600       20.7635529700
  H        22.1965847900       21.0231681500       18.9265866300
  H        23.6292587500       20.4733700100       19.0097695200
  H        17.5822970700       18.7590152800       18.4141661900
  O        17.6394331900       17.7540790000       18.1491175400
  O        20.6924958200       20.5361706600       18.2322717200
  O        23.0368054100       17.9858043700       19.0452505000
  O        18.8435060300       20.4813410500       22.2807149700
  O        20.4433662800       18.1044890600       19.2225893800
  O        22.4594044700       19.9812647300       21.8182223800
  O        20.6102316200       18.3168983900       22.1353775700
  O        18.1528093300       20.2532523900       19.6957548200
  O        23.0388766800       21.1230562400       19.4188046000
      27
 i =        1, time =        0.000, E =      -154.9700277824
  H        16.7904420100       18.0770045700       17.9123983100
  H        19.7128583000       20.2751245700       17.7289272900
  H        20.4887241300       19.3759523500       18.6939043400
  H        23.2961372300       18.4855465500       19.9573202400
  H        22.5071706200       17.5830105300       19.0506171700
  H        19.4739342600       19.9761192000       22.3433438000
  H        19.4655150700       21.4801679500       22.4891286500
  H        19.4336857300       17.4077691700       19.1503692100
  H        20.3056367200       17.8822462400       20.3269947700
  H        22.6575303500       20.4004439400       20.4757417400
  H        23.6314786000       20.3047520800       21.7189210700
  H        20.7428070300       17.8472916400       22.7287609500
  H        21.6203561300       18.9796808000       21.8858065200
  H        18.6477315200       20.4673191200       19.4432768500
  H        18.0232728500       20.3648939300       20.7799539200
  H        21.9081576800       21.0303784900       18.7867911300
  H        23.3637914700       20.5141575400       18.5366637100
  H        17.5666518200       19.0405766500       18.8099889000
  O        17.6412128700       18.1808099500       18.3392283900
  O        20.3384660500       20.3406012000       18.5165451200
  O        23.4001632200       17.9558492000       19.1300201900
  O        18.8484492600       20.7249547500       22.3992756800
  O        20.4271102100       17.6300802500       19.3731739200
  O        22.7895490900       19.9136373700       21.3823604100
  O        20.7555796500       18.4017814800       21.9531946300
  O        17.7311475800       20.2941574000       19.8452649900
  O        22.8602224600       21.1018794100       19.1272137900
      27
 i =        1, time =        0.000, E =      -154.9557050416
  H        17.1766889500       18.6837307900       17.5677998200
  H        20.1715004900       20.7908221400       17.2804731300
  H        20.1430096900       19.5106560300       18.2633509900
  H        23.3591658300       17.5239936900       19.8702401300
  H        22.5525038700       17.5147062300       18.5497713700
  H        19.4868462000       19.6962535000       22.4422344700
  H        19.2965434300       21.2122596100       22.8036901100
  H        19.4946572100       17.9395871200       18.6822219000
  H        20.2858213900       17.8334044400       20.1310810700
  H        22.7596111000       20.2750884700       20.7784957500
  H        22.8070798500       20.7712943500       22.2161267100
  H        20.8913689500       17.8076227100       22.7249978300
  H        21.5819782800       18.9863406800       21.8605876000
  H        18.5956775100       20.8512887700       19.4852078100
  H        18.1760344500       20.3201196900       20.9026387100
  H        22.2021298800       20.6602660700       18.9079284300
  H        23.4207230100       19.7391568100       19.0147780200
  H        17.6523273500       19.1070492600       18.9046888200
  O        17.7013160700       18.3688789200       18.2837163100
  O        20.4084535200       20.5181097500       18.2338421200
  O        23.3269069200       17.9639903400       18.9787295000
  O        18.8198936200       20.5227778300       22.3947062700
  O        20.3851967600       17.6957566000       19.1523806500
  O        22.5602860400       19.9246570200       21.7253555900
  O        20.6403184000       18.4536643200       22.0492462100
  O        17.8458668600       20.4541120200       19.9503593700
  O        23.0773400400       20.6587393600       19.3251963400
      27
 i =        1, time =        0.000, E =      -154.9442500129
  H        18.0093970100       18.1779899600       16.9906323200
  H        20.5388357300       20.6082416400       17.5272891600
  H        20.5528490300       19.8353919800       18.8479458700
  H        23.3757200100       17.3816755200       20.0122952600
  H        22.3397401500       17.6026468300       18.9051148000
  H        19.3725703700       19.5338557600       22.6597479800
  H        19.5044577300       20.9824803200       22.5463665300
  H        19.5392778700       17.9222553600       19.0867039900
  H        20.5485742200       18.0062417200       20.2781660100
  H        22.8668078100       20.4065920000       20.6710554300
  H        23.5004444900       20.3714570500       22.1869809900
  H        21.3027376300       17.6147267200       22.5665945300
  H        21.6445378800       19.0525854900       22.0976726600
  H        18.6047174500       20.4641064300       19.1211329300
  H        17.8232761800       20.4339155600       20.4045642200
  H        21.8834711600       21.1810181600       19.0159373200
  H        23.3314606700       20.5664796000       18.6335267800
  H        17.5513850900       18.9386399600       18.3251713500
  O        17.4799008000       18.1312310100       17.8442015500
  O        20.3961457700       20.7379760100       18.4792389000
  O        23.2590293700       17.7962388700       19.1358203700
  O        18.7313369800       20.3592165000       22.6013035300
  O        20.5284871200       17.9900158700       19.3130134100
  O        22.7041775600       20.1430033700       21.7062553900
  O        20.8633025200       18.4028174400       22.1862570500
  O        17.8180881500       20.0119624300       19.5189149700
  O        22.8441958100       20.9972556800       19.3406223200
      27
 i =        1, time =        0.000, E =      -154.9515159772
  H        16.4513641100       17.4021941000       18.6207262600
  H        20.5896842300       20.5437863300       17.5608916900
  H        20.1471064600       19.6077352100       18.5973061100
  H        23.4910575300       18.1232005600       19.9889703200
  H        22.1526319400       17.9177536400       19.2294920300
  H        19.7917044500       20.0253496200       22.3323077600
  H        19.2627479800       21.2024014600       23.1310423200
  H        19.6689708000       17.1596292000       19.1039515700
  H        20.2430359900       17.9202181800       20.2620983900
  H        23.0708775300       20.2015187000       20.5834763900
  H        23.1853015900       20.3880763200       22.1790667800
  H        20.9500085300       17.6965027300       22.4545973200
  H        21.8490965900       18.8957505500       21.7518375600
  H        18.3962626500       20.6085144700       19.0692652800
  H        18.0697990900       20.5198958200       20.6031292400
  H        21.9933916800       21.1661526000       19.0738682800
  H        22.8987156200       20.1278251300       18.7678189200
  H        17.0816830900       18.8061209300       19.0724216000
  O        17.2289915800       18.0275281200       18.4349905500
  O        20.2430249500       20.6036819500       18.4989587500
  O        23.1408592100       17.9222760700       19.0700096300
  O        19.1385703500       20.6913104500       22.2968847300
  O        20.3180692300       17.8875113000       19.2786213200
  O        23.1459311700       19.6973027700       21.4662605800
  O        20.8797256800       18.5407688100       21.9810303100
  O        17.7313292600       20.2158441100       19.6876539600
  O        22.9869741200       21.0318601100       19.2533694900
      27
 i =        1, time =        0.000, E =      -154.9563624921
  H        17.0305913200       17.4984712300       18.6929180200
  H        20.1389139000       20.6257656100       17.2020706800
  H        20.2769984900       19.6433706300       18.4563864000
  H        23.3562462300       18.4360519700       20.1735022400
  H        22.4933087500       17.5890842900       19.2250263500
  H        19.3650019700       19.7113106700       22.2563261000
  H        18.4636090400       20.5601013100       23.1126431400
  H        19.6251795800       17.5061559500       18.8232978300
  H        20.2485365200       17.8474691200       20.2066580500
  H        22.8147301700       20.4806609700       20.7151769400
  H        23.5564007100       20.4674360000       22.0968996900
  H        21.1006839100       17.6972981700       22.5610245000
  H        21.6446519000       19.1432815200       22.1242780600
  H        18.2536578300       20.9092902600       19.3520851800
  H        17.8908616000       20.2457226000       20.6869832800
  H        22.3687609600       21.3091428900       18.7447904900
  H        23.1981384700       20.1192913800       18.3946008400
  H        17.8337871000       18.8319059100       18.6896186600
  O        17.8146731900       17.8726024800       18.3103893600
  O        20.1945816800       20.5759722500       18.1467353700
  O        23.4536760800       17.8475865500       19.4012958900
  O        18.7586528700       20.4417540200       22.1888472100
  O        20.3849358100       18.0012563500       19.2299768100
  O        22.7653255800       20.1425986600       21.6374981800
  O        20.7260960700       18.5279605900       22.2335300700
  O        17.5681600100       20.3051918100       19.7387333400
  O        23.1242758500       20.8836811200       19.1354593600
      27
 i =        1, time =        0.000, E =      -154.9688837089
  H        17.1982026000       17.3793627900       18.5782384800
  H        19.7207952600       20.8174400400       17.6465300700
  H        20.2617203000       19.7127234500       18.6815684000
  H        23.7757754000       18.3872895400       20.1072601300
  H        22.6888551600       17.6798167900       19.3188091500
  H        19.4543255500       19.5103288600       22.1552967900
  H        18.0447306700       19.7090271300       22.6143669700
  H        19.6463941000       17.6927262700       18.8671826500
  H        20.4153796300       18.2376476200       20.1843896300
  H        22.8510296900       20.3819581200       20.6234621900
  H        21.9411310000       21.0690890700       21.7338441700