      15
 i =        1, time =        0.000, E =       -86.0742718913
  H        19.3463209200       24.0071345700       20.0423487400
  H        20.7527963700       19.5638629500       18.5630734600
  H        19.5052169900       20.1021641400       19.4089891100
  H        18.3690239900       19.7085454200       22.1481199400
  H        18.8029068700       18.9184426900       20.9427715400
  H        22.6833559200       21.7899748200       20.4958060700
  H        21.4029789900       21.3598946000       19.7756236900
  H        18.5378341300       21.8624698000       19.9110949500
  H        17.6364554600       20.5927178600       19.7672666600
  H        20.3801307500       22.9565913900       20.4641935400
  O        19.5067827600       23.3813684000       20.7774583900
  O        20.4633797200       19.6459998400       19.4743199200
  O        17.9682954600       19.4130529400       21.2590425900
  O        21.9777544600       22.1279554100       19.9579173200
  O        18.1702518000       21.2140978100       19.2710489300
      15
 i =        1, time =        0.000, E =       -86.0726904296
  H        19.2772666700       24.3047452500       20.2949382900
  H        20.4899524600       18.9326628500       18.8409998700
  H        19.6213447700       20.2170429200       19.4534786400
  H        18.8164160300       19.5157457400       22.1786920300
  H        18.6393993100       18.5533047200       20.9725724900
  H        22.5377842800       21.9381658900       20.6686537500
  H        21.5439400900       21.3259038900       19.5445899000
  H        18.6095926900       21.9885596300       19.8126816200
  H        17.6172254900       20.8556202500       20.0016842900
  H        20.2531729000       23.1438540100       20.3765329400
  O        19.3270531400       23.3276801100       20.6094583700
  O        20.5097088200       19.7049202200       19.4454237800
  O        18.2036370000       19.2868414500       21.4344303200
  O        21.9673345100       22.1927241600       19.9354594000
  O        18.0794191000       21.2757389700       19.2756040300
      15
 i =        1, time =        0.000, E =       -86.0765858353
  H        19.0219354000       23.7643576900       20.0260550800
  H        20.8172840300       19.9568421900       18.2277258700
  H        19.6100760300       20.2257163900       19.1286659700
  H        19.3797394900       19.5523336000       21.0400647800
  H        18.4111613200       18.4192319400       21.3789468200
  H        22.8230006400       21.8601540400       20.3557764400
  H        21.3519415300       21.3974870000       19.8669408900
  H        18.4206179400       21.7686449000       19.8831824300
  H        17.7635475100       20.4574445200       19.9525316000
  H        20.0732126600       23.0156652800       20.9407441100
  O        19.0579607500       23.1457999800       20.7619193100
  O        20.6093587800       20.0979526600       19.1490166100
  O        18.4519444500       19.3657071000       21.3007011800
  O        21.8523608100       22.1652328600       20.3140659100
  O        18.0987421400       21.0357505600       19.2593621300
      15
 i =        1, time =        0.000, E =       -86.0747169440
  H        19.1495002700       24.0748721900       20.6574325400
  H        20.9949768000       19.8623733800       18.4384691900
  H        19.7399277300       20.2907190800       19.2453751700
  H        17.9416572700       18.8254918800       22.5130841800
  H        19.0604455300       19.0328091200       21.5989033500
  H        22.3008772900       22.9929734200       20.4494899600
  H        21.4566723600       21.8656305900       19.5344077800
  H        18.3894018300       21.6805112600       19.9252563300
  H        17.6607613800       20.3484434000       19.9513571700
  H        20.1569449900       22.9051738600       20.3758750600
  O        19.2642401400       23.1292862800       20.8409249100
  O        20.7222365000       20.1865548900       19.3720132300
  O        18.1454827200       18.6848221800       21.5568175000
  O        21.8602052600       22.7708316100       19.6040330800
  O        18.1299506600       20.9468918400       19.2922609300
      15
 i =        1, time =        0.000, E =       -86.0602997361
  H        19.6565533000       24.2953008000       20.8262758600
  H        20.8107091700       19.0479115000       18.2693657900
  H        19.7664794500       20.0969437800       18.7475271900
  H        18.2122065600       20.3150543000       21.8630457700
  H        18.8896274600       19.1675822000       21.0909515800
  H        21.7720056100       22.0382506400       18.9123920100
  H        21.2265125000       21.1290065200       19.8254861600
  H        18.7524951300       22.1849983100       19.5935829700
  H        17.8406082700       20.8388021900       19.7222271900
  H        20.2562829400       22.9626294600       21.0176895900
  O        19.3847993800       23.3709189900       20.8972892900
  O        20.5347413200       19.6296988200       19.0980759900
  O        18.1428592000       19.3129113300       21.8194075800
  O        21.5381424500       22.0885400900       19.8711069600
  O        18.5006357700       21.3038754700       19.1579106600
      15
 i =        1, time =        0.000, E =       -86.0766946822
  H        19.3582291400       23.4769137500       21.2489116800
  H        20.3440964500       19.0409213600       18.5745019000
  H        19.4261445400       20.1912530600       19.1319215900
  H        18.2157478600       19.3709612200       22.5302338000
  H        18.8787456900       19.2646481700       21.1340911500
  H        22.7777002000       21.5168741800       20.7981863800
  H        21.6240314500       21.1954667200       19.6813601000
  H        18.5244855500       21.8505012700       19.8580894600
  H        17.5662295000       20.7836747800       20.0598188200
  H        20.5287652800       23.0424762500       20.3903611700
  O        19.6119698700       23.5105331800       20.2899895600
  O        20.3609235700       19.8329146400       19.1885897400
  O        18.0102707900       19.4036281500       21.5541533600
  O        22.0360042700       21.9319033900       20.2543567300
  O        18.0781856100       21.1745702500       19.3337344500
      15
 i =        1, time =        0.000, E =       -86.0776734664
  H        19.3685813200       24.4016467000       20.5362276300
  H        20.5698743800       19.9953029600       18.0335400700
  H        19.7381637900       20.4578352000       19.2849313800
  H        17.9577859500       18.4397004700       22.0485859900
  H        19.1425951300       18.7460593300       21.0500877800
  H        21.6825810800       21.5913017900       21.0183831200
  H        21.4458399500       21.3407063000       19.4972246700
  H        18.3296536300       21.9675456600       19.9847087500
  H        17.9129155700       20.4601163500       20.2048431700
  H        20.1253358900       23.0093614300       20.3832144900
  O        19.2743112100       23.4580855300       20.6862038000
  O        20.6208309600       20.0904996900       18.9641354700
  O        18.3772739000       19.0892877900       21.4288649800
  O        21.6842244100       22.0874562100       20.1435030400
  O        18.2018809300       21.0856369500       19.4841628500
      15
 i =        1, time =        0.000, E =       -86.0623394008
  H        19.3581675900       24.0040075200       20.8002877700
  H        20.1807090400       19.2282734300       18.7088837100
  H        19.5761295600       20.6952486200       18.9283765000
  H        17.9461525500       18.8223050800       22.3406673100
  H        19.0846418800       19.2825781000       21.5127803900
  H        22.9062247800       21.5230841700       20.4657775700
  H        21.8834359800       21.6292248000       19.4311695100
  H        18.2735568400       21.9718578500       19.8738702800
  H        17.7737518300       20.4564958800       19.8526170000
  H        20.4456223000       23.0490050800       20.5603092400
  O        19.4527420300       23.0734858700       20.5640707100
  O        20.2343084700       20.0364835900       19.3639223600
  O        18.1386736800       19.1834374200       21.4411073500
  O        22.5107558700       22.2168960600       19.9677935800
  O        17.7492676600       21.2847544800       19.3426959300
      15
 i =        1, time =        0.000, E =       -86.0720606318
  H        19.4733665200       24.2210378400       20.8017048600
  H        20.5390084000       19.7405881700       18.3875293900
  H        19.4331908000       20.3909071200       19.3944317200
  H        18.0911713900       19.7824021400       22.5076057200
  H        19.0437631400       19.2007389400       21.3117559000
  H        22.7183098700       22.0210624300       20.2943664000
  H        21.6409214600       21.1129182200       19.6790090900
  H        18.5263589000       21.9470416800       20.1036157000
  H        17.7397500100       20.5189846000       20.1562917400
  H        20.3275247400       23.0102857600       20.2075862800
  O        19.4351515900       23.3017051400       20.5069028600
  O        20.3325069600       19.7539747900       19.3865516300
  O        18.0982295200       19.4429627400       21.5407956000
  O        22.0237957100       22.0132367500       19.6079293200
  O        18.1894502400       21.2022880900       19.6141521200
      15
 i =        1, time =        0.000, E =       -86.0775209094
  H        18.7555247300       23.7883347100       21.0061359500
  H        21.0357304400       19.7101426300       18.4837303100
  H        19.7711360200       20.4103739800       19.4142569700
  H        18.8546469000       19.2708055500       22.2609722200
  H        18.7333091300       18.3600691900       21.0612679100
  H        22.6927475800       22.4026224900       20.4473441200
  H        21.5745358400       21.5848184500       19.7209495300
  H        18.3193230100       21.6708335900       19.8883524300
  H        17.8492902400       20.2078296200       20.2372860800
  H        20.0610554100       23.1695700200       20.3351050500
  O        19.0955708200       23.3820494600       20.2259030400
  O        20.7791210300       20.1989267500       19.3079262000
  O        18.1978076800       19.0048560900       21.5639920100
  O        21.8147611000       22.4443773800       20.0937007000
  O        18.1846950900       20.7703089300       19.4640848100
      15
 i =        1, time =        0.000, E =       -86.0727450585
  H        19.3138928400       23.8511205700       21.4875178400
  H        20.8729364600       19.6810144100       18.0924271400
  H        19.6253480200       20.2736963800       18.8594789300
  H        17.4792186400       19.9806718300       22.5622268900
  H        18.6626211500       19.1116772000       21.9327792800
  H        22.5159548200       22.4783681300       18.9656521600
  H        21.6212284700       21.4729291200       19.6185607800
  H        18.4225769100       21.7981550300       19.6637583000
  H        17.7066076200       20.5536461900       19.8337939700
  H        20.3948066900       22.9742562100       20.8311460800
  O        19.4630969300       23.0422381300       20.9018254200
  O        20.5912329800       20.0012857500       18.9802083000
  O        17.7150941400       19.3726520200       21.8399577200
  O        22.2672680600       22.2182039900       19.8567879200
  O        18.1002904500       21.0653239100       19.1403391000
      15
 i =        1, time =        0.000, E =       -86.0802037646
  H        19.2397335000       24.3776967200       19.9225356600
  H        20.8495349400       19.7537257900       18.5186326900
  H        19.6158764300       20.3647654800       19.2465320800
  H        18.0710806400       18.5645945400       22.4581568100
  H        19.0498030400       19.1613943300       21.4373154300
  H        22.5064961600       22.1398250800       20.9254510000
  H        21.6133383000       21.6221806000       19.7285755900
  H        18.3456065700       21.7097908300       19.7043566500
  H        17.7260648900       20.3674649200       20.1485290200
  H        20.3426059400       23.2024773200       20.1072978000
  O        19.3924785500       23.4212158900       20.1651978500
  O        20.5837793900       20.1630968100       19.3631195700
  O        18.1159236500       18.9676625700       21.5780013600
  O        21.9366226100       22.4082160200       20.2011316100
  O        18.0612436600       20.7969481500       19.3896140800
      15
 i =        1, time =        0.000, E =       -86.0755195690
  H        19.4543141100       24.3517529600       20.2751056800
  H        20.6479822400       19.1047642900       18.7609241300
  H        19.8503336000       20.3492133100       19.0895069100
  H        17.8608010900       19.4689900300       22.0580395000
  H        19.0758317300       19.2306546600       21.0799004100
  H        22.5876639500       22.2151797000       20.7439680700
  H        21.3710148600       21.3937801600       19.9537479800
  H        18.6733672800       21.8264729200       19.6272883200
  H        17.9454279300       20.4433941600       20.0000319400
  H        20.4453994000       23.1311719700       20.6634702500
  O        19.4696397900       23.4653593400       20.6658847000
  O        20.6331533900       19.8245865700       19.4187349900
  O        18.0945184800       19.0881875200       21.2034545400
  O        21.7389012100       22.3138040800       20.1863850800
  O        18.1190570700       21.0493590300       19.2191651300
      15
 i =        1, time =        0.000, E =       -86.0773227430
  H        19.1395856300       24.0987482600       20.2232661500
  H        20.3824163900       19.1089942700       18.9898087100
  H        19.3570110700       20.3387435400       19.0060865300
  H        18.1035432500       19.8993361600       22.1524631200
  H        19.1918258100       19.7618947400       20.8919410500
  H        22.1231128900       21.7191831800       21.1767124300
  H        21.3962319200       21.0948762100       19.9496186700
  H        18.5053621500       22.0903085500       19.6473962900
  H        17.2220423100       21.0427110000       19.5544865300
  H        20.3317413000       22.9905365900       20.4374012000
  O        19.3534798300       23.1855216700       20.4782154000
  O        20.3377666500       19.9987986100       19.3078885600
  O        18.5792434200       19.2800270200       21.5349977300
  O        21.8774923000       21.8991545000       20.2678471200
  O        18.0433298500       21.3381049000       19.1187130600
      15
 i =        1, time =        0.000, E =       -86.0774423814
  H        18.8777864800       23.1007139400       21.3211629400
  H        20.9496073000       19.9422613200       18.4336410800
  H        19.8657319200       20.2392818000       19.4076201000
  H        18.5191722900       19.5438603300       21.9868659500
  H        19.1000168900       18.5653343600       21.0101548400
  H        22.2957933400       22.2459984300       21.3194992400
  H        21.6412218700       21.6059481800       20.0436602500
  H        18.3550328000       21.8244485000       19.4531541200
  H        17.9747570400       20.2794942100       19.8603991900
  H        19.9906664900       23.2838286200       20.3118915300
  O        19.0048169800       23.3735774100       20.4190082400
  O        20.8476442900       20.1066087100       19.3651653000
  O        18.2408379700       19.0345839900       21.1550830600
  O        21.7037691200       22.4029331400       20.5809314200
  O        18.2797709800       20.8793016600       19.1169807300
      15
 i =        1, time =        0.000, E =       -86.0733340723
  H        18.9505933800       24.3682872600       20.5733524200
  H        20.9472697700       20.0208084400       18.1417580800
  H        19.7174512600       20.3871295700       19.1714845600
  H        17.7121290000       18.6828608800       21.8203384600
  H        18.5716208700       19.9402473000       21.9663064400
  H        22.5646620800       22.1587271100       20.5691472000
  H        21.5976875700       21.2442614300       19.9116635100
  H        18.2744602000       21.9192055200       19.6224868100
  H        17.8563564200       20.4101702300       19.9102660100
  H        20.1618385600       23.2751721400       20.5185139700
  O        19.1403498800       23.4042854600       20.4527997600
  O        20.6991207900       20.0415057800       19.1085483000
  O        18.4428368100       19.1497278400       21.3961319100
  O        21.5870422900       22.1061390200       20.4880852300
  O        18.2840845300       20.9834707000       19.2509993600
      15
 i =        1, time =        0.000, E =       -86.0710533287
  H        19.2236687400       24.0523440300       20.0143611900
  H        21.1003637700       19.1833802800       18.8451050600
  H        19.7752780200       20.1360075800       18.9874991000
  H        18.5100647200       19.1801779900       22.0828334100
  H        18.0628446300       19.9799189900       20.8422582500
  H        22.4543175100       22.3125812700       19.1886347600
  H        21.5779188400       21.4028621400       20.1265875600
  H        18.5246511200       21.9926616900       19.8954744300
  H        17.2507753900       21.1133914900       19.4337959900
  H        20.3356794400       22.9533112000       20.2486531300
  O        19.3470066700       23.2498475400       20.5652936100
  O        20.7232651400       19.9188891100       19.3080406000
  O        17.8376905600       19.1202865400       21.3701294600
  O        22.0053102600       22.2821776800       20.0758161300
  O        18.2110858000       21.1202430300       19.5373219800
      15
 i =        1, time =        0.000, E =       -86.0714287893
  H        18.8259646800       23.8343433500       19.8102994600
  H        21.0418229700       20.1711187900       18.3037407400
  H        19.5636394900       20.5731962500       18.9716469600
  H        19.0000521300       19.6933072600       22.5053532700
  H        19.4704508100       18.9741991600       21.3377777800
  H        21.8654868400       21.9474779400       21.4612382500
  H        21.3260037100       21.3443903800       20.1081493100
  H        18.5494018800       21.9126201000       19.6700050900
  H        17.6414508500       20.5600657200       19.4036315700
  H        20.0014534100       22.9996013200       20.4219798300
  O        19.0113880300       23.1031367100       20.4390400900
  O        20.5023627600       20.0344425300       19.1114596300
  O        18.6377290800       19.1589633400       21.7417894700
  O        21.7941330000       22.1738481900       20.4998476900
  O        18.1491233500       21.2397222200       18.9177527100
      15
 i =        1, time =        0.000, E =       -86.0695447735
  H        19.1735446600       24.6434574900       20.0131695800
  H        20.8915200400       19.4500947400       18.6350674000
  H        19.8786760600       20.1318443200       19.6502808200
  H        17.7853281600       18.4237136500       22.0758646600
  H        18.7677376900       18.3958733500       20.9547920500
  H        22.3100196700       22.4017342900       20.4444847600
  H        21.3359464600       21.4571158500       19.5922189400
  H        18.3801689100       21.6703950100       19.3054856400
  H        18.1366213100       20.7091452600       20.3506949400
  H        20.0075666000       23.5067558000       20.4285479900
  O        19.0798315000       23.7752492400       20.3827910700
  O        20.8763487500       19.8834640900       19.5010446100
  O        18.3898828500       18.9700006500       21.6002556000
  O        21.4955616300       22.4257467400       19.8716818200
  O        18.2920855500       20.7325290800       19.3883412000
      15
 i =        1, time =        0.000, E =       -86.0741516156
  H        19.4284332600       24.0683634000       20.4409508900
  H        20.4153317200       19.1805945400       18.9933265100
  H        19.5540675500       20.2655968600       19.4756926200
  H        17.8282924000       19.4302508700       22.4932957300
  H        18.9612397500       18.9273021900       21.5283850900
  H        22.3989103300       22.1631117700       20.7530077300
  H        21.8442799100       21.3618006300       19.5238352500
  H        18.3982403000       21.9725512600       19.4522493100
  H        17.6340613300       20.6278229100       19.9934728300
  H        20.4030891500       22.7772646200       20.3437752500
  O        19.4598259200       23.1268366500       20.5160970300
  O        20.5240976900       20.0293318200       19.4670926700
  O        18.0044298000       19.2885115600       21.5609489600
  O        22.0502189700       22.2586097700       19.8526415300
  O        18.0826116900       21.0846747200       19.2498428200
      15
 i =        1, time =        0.000, E =       -86.0813455368
  H        19.4586000600       23.9116512200       21.0589967700
  H        20.3506653900       19.1415602900       18.9372596600
  H        19.6099644300       20.4524692000       19.2508649500
  H        18.6408970500       19.8839582500       22.2287745900
  H        19.0234689700       19.3706901000       20.8838350700
  H        22.5279924300       22.0094212100       19.5193205000
  H        21.5624913700       20.9561354900       20.0471265900
  H        18.2767542700       22.0840376000       19.4228243000
  H        17.5676429600       20.6900023800       19.7560602000
  H        20.1285502300       22.7755144500       20.2675721600
  O        19.4043273600       23.4647210600       20.2085589800
  O        20.3316210100       19.8430242700       19.6012486400
  O        18.2345656500       19.4501915300       21.5051990100
  O        21.9852021000       21.8615949400       20.3047769500
  O        18.1477587100       21.1368815300       19.1292432700
      15
 i =        1, time =        0.000, E =       -86.0761148849
  H        19.5950671800       24.3864592600       20.9082284800
  H        20.5802160200       19.9566864700       18.2411069400
  H        19.5456474900       20.3533911900       19.2061862900
  H        19.0314925400       19.4277654100       21.9360194200
  H        19.1008065900       18.4780127300       20.6723178300
  H        22.2591072300       22.1015885700       20.6587286500
  H        21.3603719100       21.4727219700       19.6458680900
  H        18.1664450000       21.7287136900       19.9809062600
  H        17.5115502100       20.4028520100       20.0987261900
  H        20.2243141900       23.1097944700       20.6375016700
  O        19.3483716200       23.4483676600       20.8211851400
  O        20.5432624700       20.0885065400       19.2077905200
  O        18.4869964300       18.9252122900       21.2995509900
  O        21.6847500600       22.3839176400       19.9563974900
  O        18.0257299000       20.9014282700       19.4254841400
      15
 i =        1, time =        0.000, E =       -86.0698974946
  H        19.7282374500       24.2188073900       21.0482581800
  H        20.5110688300       19.1501088100       18.4324060500
  H        19.4921960600       20.3432598000       18.9623697500
  H        18.6703962800       19.4866946800       22.5020706100
  H        19.0242065000       19.5574571300       20.9957469100
  H        22.1811445500       21.3467962100       20.9355742500
  H        21.0550035000       21.2697310000       19.7607313800
  H        18.5814669800       22.3200273200       19.4340982200
  H        17.8131400600       20.9728166600       19.5619947000
  H        20.4435621300       22.7795922700       20.9448085100
  O        19.6138459200       23.3431467800       20.6822351200
  O        20.3092157500       19.8037222800       19.1707146900
  O        18.3041636500       19.1816591200       21.5873657100
  O        21.5861370900       21.8897659400       20.3479024800
  O        18.2678471300       21.5274179300       18.8848624000
      15
 i =        1, time =        0.000, E =       -86.0816824896
  H        18.9234558900       23.9784478800       21.4055885200
  H        20.9023684900       19.3695779100       18.2556090600
  H        19.8418154400       20.3226787500       18.8706839600
  H        17.8442623500       19.3769751100       22.1156576700
  H        18.9333579900       18.7435986900       21.2618373500
  H        22.6400824600       21.9582546300       20.8159996700
  H        21.5071186300       21.6891300800       19.7793121900
  H        18.5274688000       21.9873911600       19.6746140300
  H        18.0897486900       20.5548187500       19.9484119800
  H        20.2213554400       23.2586995200       20.7756364700
  O        19.2120752000       23.2757882200       20.7492705000
  O        20.7004205600       19.8369839400       19.0926495400
  O        18.0523605600       19.1537872200       21.1951476100
  O        21.8346124400       22.3544845800       20.4441664800
  O        18.2861125100       21.1376291700       19.1713515600
      15
 i =        1, time =        0.000, E =       -86.0740381021
  H        19.1181329800       24.0932784000       20.3316694600
  H        21.1181270500       19.5945868500       18.3578362300
  H        19.8712402500       20.4234691500       18.8794199200
  H        18.7381845200       20.0905846000       21.9607773500
  H        18.5522985500       18.4851123000       21.8644977500
  H        22.3750381600       22.0850135500       20.7490869900
  H        21.2865515300       21.4233498900       19.8139424400
  H        18.7016281100       21.7490074000       19.4821642100
  H        18.0123437600       20.3025812700       19.2972706900
  H        20.0344511200       22.8284983800       20.6488388100
  O        19.0966629500       23.1521189900       20.6189209100
  O        20.8183378100       20.0558438200       19.1779100400
  O        18.1334397600       19.3910418000       21.7236405900
  O        21.4971039400       22.1911467500       20.4267231900
  O        18.5162867200       20.9788601300       18.8010213200
      15
 i =        1, time =        0.000, E =       -86.0715833106
  H        19.3139507200       23.9512039200       20.4543832500
  H        20.6823661400       19.2175766800       18.7755296200
  H        19.8436287800       20.3991322500       19.3341476800
  H        17.3865920700       19.2821599200       22.2767245000
  H        18.1586003600       19.9789533100       21.1528727200
  H        22.8221916100       22.5744002100       20.1615560800
  H        21.6800729000       21.5485903200       19.8943126300
  H        18.2586393700       21.8932461900       19.6659479800
  H        17.1080782600       21.0894987600       19.1155909900
  H        20.3545272200       22.8406675000       20.2932848200
  O        19.3763626700       22.9959091500       20.2533365100
  O        20.7471185000       20.0125227400       19.4191945400
  O        18.2045571400       19.1897616600       21.7389270200
  O        21.9111467800       22.5260214800       19.7846626300
  O        17.9612137200       20.9376931000       19.5685490400
      15
 i =        1, time =        0.000, E =       -86.0719340278
  H        18.8771099500       24.0483807500       20.1545277600
  H        20.5945197900       20.1632135700       18.2528244000
  H        19.8784150800       20.1493471800       19.4960170300
  H        18.7804923200       18.9934124000       22.4684641000
  H        18.1486860900       18.2900762300       21.2524945700
  H        22.3627623500       22.0705001000       20.5966228400
  H        21.3890088900       21.6406679300       19.4575816400
  H        18.4928401600       22.0998974200       19.6729578500
  H        18.0388256000       20.6740165000       20.0529078200
  H        20.1527200900       23.0549816300       20.5641363900
  O        19.1649767400       23.2402772800       20.6143722800
  O        20.7083594900       19.7922659300       19.1348720100
  O        18.3161569000       19.1851013100       21.6081137500
  O        21.5993719300       22.3612497500       20.0915597800
  O        18.3418052300       21.1832490500       19.2625650000
      15
 i =        1, time =        0.000, E =       -86.0699441779
  H        19.3548704800       24.1561121200       19.9082148300
  H        20.8445431000       19.8209737200       18.5432257900
  H        19.5655446300       20.2562527700       19.2336295400
  H        18.1152642400       19.4336897000       22.5489929100
  H        18.8243717400       19.6834634000       21.2307933600
  H        22.3803811400       22.1867150200       20.9640442000
  H        21.5067203000       21.2205383100       19.9192126200
  H        18.3532566500       22.1420945700       19.3784318800
  H        17.6737600100       21.0372284800       20.1051307400
  H        20.2523129100       22.9667068800       20.0225995500
  O        19.3333310300       23.2343748900       20.1554608400
  O        20.5682135400       19.9541684700       19.4744706000
  O        18.1004185100       19.1200116300       21.6209345500
  O        21.8788072700       22.1747621100       20.1329162100
  O        18.2400936900       21.1705047400       19.3348994000
      15
 i =        1, time =        0.000, E =       -86.0766305176
  H        19.5966834800       24.1306779100       19.9394546400
  H        20.6299376500       19.5013557300       18.4234660500
  H        19.5585347400       20.2363555100       19.4185366800
  H        17.6741753900       18.7951175600       22.1632602400
  H        18.9357874200       18.9890637600       21.2341153500
  H        22.6752042900       21.6150394500       20.4429934500
  H        21.4552764400       21.1958019600       19.4619442200
  H        18.2883311600       22.0407388100       19.5029118400
  H        17.6259124100       20.8605746600       20.2400262100
  H        20.3115480600       22.9227392200       20.3757337300