      45
 i =        1, time =        0.000, E =      -258.2998478719
  H        19.5024418200       17.8162884100       17.7406637600
  H        21.2117953500       18.8493811300       20.3230958900
  H        22.6809409100       18.7374437000       21.1300009500
  H        17.9021139400       15.5153909600       22.1507789600
  H        17.9257941400       16.7528969100       21.2626649200
  H        17.3145235000       21.2441803400       19.6009075600
  H        18.2560332200       22.4063195900       19.9286944700
  H        16.6308745800       16.8438953700       19.5024362000
  H        16.5133940600       18.2213193300       20.4255004400
  H        21.6614001600       21.1672365400       22.3927850100
  H        21.5826128900       21.3163415300       20.8520925800
  H        18.4165371900       19.9152661900       22.9893349700
  H        18.0924851500       21.4535425000       22.3454016900
  H        21.4692132100       15.4064693600       19.4977516700
  H        22.2728981500       16.7936137100       19.4833089500
  H        21.3004190500       18.5009072600       24.1936303000
  H        21.7002656100       17.0576497900       23.6140757000
  H        19.0804744700       17.9852333300       23.2240131000
  H        19.7949783000       18.9538511000       22.1605317800
  H        16.9760625600       20.1015679400       21.7132921000
  H        15.4990718700       19.9565647000       21.0247181900
  H        22.8148825200       18.5825432700       23.3971550600
  H        24.0851868800       19.5469333700       23.2703733200
  H        19.0643500300       20.1960147700       20.0937451700
  H        19.4680535900       18.6853559000       19.5947834100
  H        20.0109580200       16.0337196400       21.8798419700
  H        21.2437301100       16.9130311500       21.3806969800
  H        18.9646296800       23.8599761100       21.9765200600
  H        19.9113917000       22.7214422000       21.8293257800
  H        20.4522809900       17.1268165700       18.7703706800
  O        19.5722884000       17.5247937800       18.6014842600
  O        22.0685903000       18.3060586200       20.4864849400
  O        18.3818268800       16.3810239300       22.0953745200
  O        18.2216759700       21.6288077500       19.3292087000
  O        16.5457123700       17.1888890100       20.4374893700
  O        21.6022849600       21.8494248100       21.6492830800
  O        17.7349751800       20.6750928300       22.8390790200
  O        21.9117951000       16.0824692500       18.9091581900
  O        21.9249181400       17.7801872000       24.2537780900
  O        19.6336436600       18.8344656100       23.1153042900
  O        16.4432235300       19.7795460000       20.8126841200
  O        23.2415478800       19.3751694800       22.8212083400
  O        19.6360268900       19.4222421100       20.3147033500
  O        20.9946843700       16.0794469500       21.8519592200
  O        18.9348879400       22.9171644900       21.8445173900
      45
 i =        1, time =        0.000, E =      -258.3064627836
  H        18.8726605900       17.2866025500       17.5101304500
  H        21.5959413400       18.9435974600       20.2582598700
  H        22.8622546500       18.7577204100       21.2114130100
  H        18.1567481300       15.2118787400       22.9289539800
  H        17.7367684800       16.2132810600       21.6189192100
  H        17.0755878800       21.2272718600       19.9655304100
  H        18.2603007500       22.3928478100       20.0203586300
  H        17.2246679400       16.8512780400       19.4741779200
  H        16.6546024100       17.8837049900       20.5359429100
  H        22.4504116000       21.4669506900       22.2512313500
  H        21.4858550100       21.0754430800       21.1541666900
  H        18.5713605700       20.4789891800       23.5023705100
  H        18.3563856500       21.8753836300       22.7990301700
  H        21.2906044000       15.8326073600       20.0086565900
  H        21.7387595500       16.8083060200       18.9458402200
  H        21.0781456400       18.5924539400       23.7526739600
  H        21.9390894300       17.1787161100       23.6053602300
  H        18.9956850300       17.6449795400       23.1150504600
  H        19.3885228900       18.8890434100       22.1398849400
  H        17.0994832000       20.2548233100       21.7026992100
  H        15.5778963200       19.8417800600       21.3600995500
  H        22.9515867600       19.0560846000       23.1362263500
  H        24.3327251500       19.9057526500       22.6812175300
  H        19.4949514200       20.1124490100       19.6368859900
  H        19.3700297700       18.5710920100       19.6988456600
  H        20.2933044100       16.1314411400       22.0317832700
  H        21.5429210300       17.0990643600       21.5654180800
  H        18.9810604400       23.8521809900       21.3664393000
  H        20.2708111900       22.8692542800       21.6380477000
  H        19.6312567100       16.5149610900       18.6643130100
  O        18.7761315200       17.0734282700       18.4841181100
  O        22.2193328900       18.2446344900       20.6108333200
  O        18.3507769500       15.9964806200       22.4320616400
  O        17.8194632700       21.7310900700       19.4643787500
  O        16.9577918200       16.9296597700       20.4518292800
  O        21.8566079400       21.9106854600       21.5626040000
  O        17.8809571000       21.0133728200       23.0340690500
  O        21.2606993100       15.9924905000       18.9825574200
  O        22.0239752900       18.2000542200       23.8602560900
  O        19.3392902200       18.6223172800       23.1128364700
  O        16.4535165200       19.7808089800       20.9896544300
  O        23.3818921600       19.7431098700       22.4832857600
  O        19.8572126600       19.3352894500       20.1120884100
  O        21.2948190700       16.2243665700       21.9756573500
  O        19.2823321700       23.0169918000       21.7720042500
      45
 i =        1, time =        0.000, E =      -258.3043542161
  H        19.2546420100       17.3322117400       17.4405921000
  H        21.7966963800       18.9222110800       20.0136374500
  H        22.7236317100       18.8372543200       21.3472068000
  H        18.2355297400       15.4759430500       22.0553763200
  H        17.8312863100       16.5533789900       21.0520291800
  H        17.5779464300       21.2125949000       19.7458859600
  H        18.7208475300       21.9040520800       20.3562590700
  H        17.2382787200       16.9663776200       19.2354191500
  H        16.6145539500       17.9565786400       20.2912934300
  H        22.4319470500       21.1352274800       22.0925414300
  H        22.2168958600       22.0666870600       20.9188716600
  H        18.0714410800       20.1855256400       23.2523277500
  H        17.8433566900       21.6776312300       22.6024646500
  H        21.3775058100       15.7413094400       20.2063670000
  H        21.8189038300       16.7026032000       19.2436733800
  H        20.7825387300       18.3363044400       24.3504757500
  H        21.6896618900       17.2747660100       23.6498414400
  H        18.8122722400       17.8721133700       22.9766795000
  H        19.6326727100       18.9532273600       22.3204522500
  H        16.5404393900       20.3120516700       21.6159250300
  H        15.5178491800       20.0159191800       20.3463004500
  H        22.5927356100       19.1089501200       23.7112362900
  H        23.9537556700       19.4857119000       23.1479182500
  H        19.4593356100       20.0501163600       19.6125049400
  H        19.4617248100       18.5308594100       19.4333169500
  H        20.3991517100       16.5177034800       22.0720213800
  H        21.7766238700       17.1825613700       21.8971769300
  H        19.4839467600       23.6274548500       21.8860561600
  H        20.2237412600       22.1939523800       21.9345880600
  H        19.5026866000       16.6656257100       18.8854905500
  O        18.7912026900       17.1869974600       18.3594571900
  O        22.5791859000       18.4801575200       20.4586452500
  O        18.6245184700       16.3412908900       21.7224960600
  O        18.5058938900       21.5329908800       19.4781000300
  O        16.7604967900       16.9749105100       20.0993878300
  O        21.8960851600       21.8649123500       21.8432782300
  O        17.3416253400       20.8226825100       22.9050365900
  O        21.1511812400       15.9942668500       19.2592595900
  O        21.7098107800       17.9693199200       24.4086536600
  O        19.3025005700       18.7566145000       23.2176341300
  O        16.4518414700       19.9326639800       20.6648087600
  O        22.9980708900       19.6568652800       22.9888846600
  O        19.9482143300       19.2345144100       19.8012481200
  O        21.3448729500       16.4066436800       22.3792205200
  O        19.3302573200       22.6614007300       21.7790439100
      45
 i =        1, time =        0.000, E =      -258.3103405864
  H        18.9913009700       17.5723030400       17.3418558900
  H        21.3582584700       18.8942343600       20.5935959300
  H        22.6996071400       18.6309213400       21.4195975600
  H        17.6980878400       15.2125302800       22.7667527300
  H        17.5498031100       16.2011329700       21.5417680900
  H        17.4162422600       20.8094083000       19.6237827800
  H        18.3264986800       22.0306890900       20.1178809500
  H        17.8482384900       17.2227145800       19.6207884900
  H        16.9659300400       18.2373234900       20.3591012300
  H        22.2945616300       21.0588123500       21.9879125300
  H        21.8501202500       21.5346705900       20.5524335100
  H        18.3544179600       20.2439038900       23.0216136900
  H        18.2071014800       21.6315175000       22.4705912200
  H        21.5068703000       15.4575096500       19.5491105400
  H        21.9226595300       16.9366524500       19.5469861500
  H        20.6829660800       18.2135672300       23.9845819600
  H        21.8522853600       17.3418778800       23.4891221400
  H        18.6832891300       17.2523143300       23.0336375700
  H        19.2647433700       18.4475282300       22.2571902400
  H        16.8624054300       20.1197366000       21.6573785000
  H        15.4561011800       20.3297027400       20.9055470900
  H        22.6947634700       19.2241854500       23.6920565300
  H        23.9462410300       20.2065364400       23.2852372200
  H        19.6479374700       20.2912997900       20.1334913000
  H        19.6863384800       18.9112411800       19.4077224700
  H        20.2834608700       16.1491128400       22.2516158100
  H        21.5276058900       16.9082145500       21.7470373700
  H        19.5060403200       23.7175317300       21.8114176000
  H        20.3344093800       22.3151900200       21.7121397700
  H        19.8821988800       16.9524640400       18.4684117300
  O        19.3912739100       17.7729790600       18.2511365600
  O        22.2471591000       18.3793540200       20.6032074400
  O        18.2202445500       15.9082891400       22.2854334600
  O        18.0614434700       21.5079734600       19.3331901300
  O        17.1238723500       17.2319193900       20.2931158900
  O        21.8725756500       21.8367223000       21.4807194900
  O        17.6519402900       20.8827094600       22.7999360000
  O        21.4666226400       16.2600636800       18.9864825700
  O        21.6786776400       18.1379444300       24.0613559300
  O        19.0992728400       18.1611478200       23.1882791600
  O        16.3291991900       19.8185242400       20.7851967800
  O        23.1180752800       19.7903887100       22.8945878600
  O        19.8402400300       19.3643344600       20.3446944400
  O        21.2308632500       16.0775701900       22.3097907400
  O        19.4220719400       22.7330649000       21.7066704300
      45
 i =        1, time =        0.000, E =      -258.2970617174
  H        18.6268095600       16.7102205400       17.5125105600
  H        21.3689333000       18.6635932500       20.1589913600
  H        22.6050426400       18.9794068500       21.1145080800
  H        18.0527296700       15.4309266700       23.0122585900
  H        17.8472526500       16.4763732300       21.8502428900
  H        17.6128384100       21.2638152100       19.5757229400
  H        18.5067677800       22.3845183800       20.2908148800
  H        17.4925593000       16.6197457000       19.6499341800
  H        17.0998521400       18.0946033700       20.1865350700
  H        22.0915846400       21.3048020500       22.2211173400
  H        21.7929484700       22.0813722800       20.8422355100
  H        18.0293327300       20.3297293500       23.4152931400
  H        17.9712251600       21.6369852700       22.4883487600
  H        21.0793879900       15.5621149600       19.7380413000
  H        21.9084578700       16.6669514100       19.1641807700
  H        20.8774129600       18.3178290400       23.6925280400
  H        21.9488493400       17.2306620600       23.9217097400
  H        18.9143588900       17.7477927300       23.1282757500
  H        19.1840855300       18.6516198100       21.9650618800
  H        16.9843943600       20.1536000600       21.3015594400
  H        15.6925916000       19.8970877400       20.4325657700
  H        22.5570584300       19.3271232600       23.5282155600
  H        24.0812086900       19.7411494300       23.2785310200
  H        19.3492379600       20.1152928100       20.0294894300
  H        19.5039265100       18.8012844500       19.1420378000
  H        20.3430292300       16.1902800600       21.9406828700
  H        21.7525711800       16.6866220800       21.4992518600
  H        19.3077852200       23.9642818100       22.0937194800
  H        20.3893701700       22.6481134900       22.1227452400
  H        19.6721983400       16.6668363500       18.7576992500
  O        18.7595080300       17.0086885800       18.4523751200
  O        22.1583823200       18.2520139000       20.5877993700
  O        18.4460505100       16.2272773800       22.6203278200
  O        18.5565250600       21.7012567600       19.5938428900
  O        16.9899635900       17.0825488300       20.3816838500
  O        21.8497424500       22.1918473900       21.7718516400
  O        17.3862904200       20.8987424500       22.7795787400
  O        21.3818667200       15.9286716600       18.8584689300
  O        21.7443535200       18.1862110200       24.1031317300
  O        19.2522902600       18.6824633200       22.9536986800
  O        16.6467284600       19.7221098400       20.4046392700
  O        23.1881914100       19.7955963200       22.8794208900
  O        19.7724544800       19.2193791900       20.0169689500
  O        21.2417868900       15.9565280000       21.8727573800
  O        19.4207716800       22.9913853400       22.0658724600
      45
 i =        1, time =        0.000, E =      -258.3028475338
  H        19.0742598700       17.6547652700       17.5086562900
  H        21.8299131800       18.9746404700       20.3486173300
  H        22.8264162700       18.7210735400       21.4099510800
  H        18.0220958700       15.5907606100       22.3864886900
  H        17.7316668400       16.7219150600       21.3848190000
  H        17.3166527500       21.3843030900       19.6892101000
  H        18.4813936700       22.3664975500       19.8586113700
  H        17.7105463500       17.0216661400       19.5747917600
  H        16.7490981300       17.9598020500       20.2861207300
  H        22.0181500200       21.3918291000       22.3375298700
  H        21.9252029300       21.6867710900       20.9128611800
  H        17.9379332500       20.1014766900       23.3002084600
  H        17.8374518700       21.5188843700       22.6254414400
  H        21.3129318400       15.5122248000       19.9546842000
  H        22.1213372100       16.7782415800       19.5120106800
  H        20.9349224800       18.2342551600       23.8669435400
  H        21.6581734600       16.8015453700       24.1192521400
  H        18.9432806800       17.9962137400       22.6392130000
  H        19.7116108500       19.4656216800       22.2892091600
  H        16.5583230900       19.9210935700       21.5725613100
  H        15.2163193800       19.7437438400       20.7185491000
  H        22.7156929200       18.8346828200       23.3087676300
  H        24.1340794900       19.4499068400       22.9145383300
  H        19.4443716900       20.5506213800       19.8753072400
  H        19.8129700700       19.0897557000       19.5456438000
  H        20.0448172600       16.0831800300       21.9745953800
  H        21.4411986400       16.5595644700       21.5368417900
  H        19.0934031900       23.5129507900       22.1459107700
  H        20.0979175900       22.3532296300       21.8045708500
  H        19.8835351200       16.8646753400       18.6237318400
  O        19.1209123600       17.4480503700       18.5095077000
  O        22.5720523700       18.2778960200       20.5384168600
  O        18.3501761800       16.4746215300       22.2040523300
  O        18.1826655300       21.6576705800       19.3255073000
  O        17.0193994900       17.0116311300       20.2437069200
  O        21.8947118900       22.1650711200       21.7591515200
  O        17.2534230000       20.7751226500       22.9596157400
  O        21.4659889000       16.1555505500       19.1597156900
  O        21.7335602700       17.7922477000       24.3121414500
  O        19.5239551400       18.7969445600       22.9964491100
  O        16.2083193500       19.5133326800       20.6847219800
  O        23.1786388700       19.5845092300       22.8622267900
  O        20.2143167200       19.8430016900       19.9948595200
  O        20.9333546800       15.7480874100       21.9165936400
  O        19.1470937700       22.5694078500       21.8775890100
      45
 i =        1, time =        0.000, E =      -258.2885871340
  H        19.7664567900       17.7287282600       17.5645154400
  H        21.3791210600       19.1961543000       20.3557306400
  H        22.7663687500       18.7426337500       20.8138999600
  H        17.7415381400       15.5163889000       22.6118161200
  H        17.6399937500       16.5275442600       21.3878354100
  H        17.6337374600       21.7207870700       19.5976155900
  H        18.9258918700       22.1893219600       18.7093033000
  H        17.7651614500       17.1538740300       19.2566910300
  H        16.8698003400       17.8936848000       20.2021050500
  H        22.0222714900       21.1513402400       22.1237519700
  H        22.1397958800       21.5410725700       20.6917920200
  H        18.3520594800       20.1026933800       23.2553683200
  H        17.9409308200       21.4208415200       22.5777394400
  H        21.4850542600       15.8302602200       20.2119075100
  H        21.9003230200       16.9774573200       19.3269796500
  H        20.9262728400       18.1127091100       24.1496471600
  H        21.8136079300       16.9401530900       24.0166038500
  H        18.8465768700       17.6477014400       23.2231509500
  H        19.4282232300       18.7122664800       22.2399890600
  H        16.9874089200       20.0489717100       21.6106733700
  H        15.6210589100       19.4545534600       20.9713159100
  H        22.5999072200       18.9069301400       23.3153947800
  H        23.7461459900       20.0633010100       23.4000199400
  H        19.2775158000       20.3023115800       20.3158602500
  H        19.5177426800       18.7938706000       19.8357609900
  H        20.0163755700       15.9938983600       22.2239847000
  H        21.0614005400       16.9691963400       21.5746574000
  H        19.5396180400       23.8149968000       22.0948839200
  H        20.0419341300       22.5230017200       21.7563746900
  H        19.9273025500       16.8692418700       18.8071848900
  O        19.2865786400       17.5523646000       18.3948807800
  O        22.1712505700       18.6410935400       20.0447082100
  O        18.1116905600       16.4079777000       22.3272239900
  O        18.5108409500       21.4062499300       19.1346439100
  O        17.1183644800       16.9552275500       19.9656193400
  O        21.6397289400       21.7821359900       21.4756256800
  O        17.6606521300       20.7703387300       23.2060892000
  O        21.4822453500       16.0295023300       19.1710016400
  O        21.8505254300       17.8120578900       24.3923430400
  O        19.5049843800       18.4720829700       23.2532333100
  O        16.5855797400       19.7150626700       20.7150444600
  O        22.9627613900       19.7806690700       22.8882449600
  O        19.7385220700       19.4238532400       20.5748777700
  O        20.9401492200       16.0758053900       21.9594623200
  O        19.1657727500       22.9887237900       21.8288505100
      45
 i =        1, time =        0.000, E =      -258.3055411276
  H        19.2813673000       17.2012474900       17.5876462800
  H        21.6313148300       18.9376001800       19.8764655800
  H        22.9283050700       18.8589034400       20.8105882100
  H        17.7629014800       15.8125082400       22.8514475800
  H        17.4902986100       16.6971301100       21.5664390000
  H        17.7779827400       20.9826080100       19.5861420800
  H        18.4967267800       22.0935770600       20.4203550400
  H        17.1731740900       16.8503763500       19.4211902200
  H        16.5787755500       18.0083831000       20.3682440700
  H        22.1968019800       21.1757370400       21.9223154800
  H        21.4801337000       21.7484316400       20.5550596100
  H        17.9230120400       20.0472780800       23.1282934000
  H        18.0808154000       21.4136785500       22.6390652000
  H        21.6960100900       15.4222467100       19.7930471400
  H        22.1269919300       16.8245496500       19.4804901300
  H        21.1316568100       18.3543536500       24.2726489900
  H        22.1056081500       17.3099995000       23.7538273800
  H        18.9301417200       18.0906781100       22.8629288700
  H        19.6084276400       19.1993629900       22.2072666100
  H        16.6146296700       20.1804606700       21.4622959100
  H        15.4805110800       20.2638579900       20.4236662100
  H        22.6253515300       19.1900123300       23.4699335400
  H        23.8138781500       20.1866005600       23.1520453200
  H        19.4981643800       20.3259610800       19.9887287000
  H        19.2859392000       18.7639914000       19.8051853600
  H        20.1544440300       15.6894413000       22.6009938700
  H        20.6036253900       16.4228075400       21.4208360100
  H        19.2954485000       23.4363339400       22.4435822300
  H        20.3373250500       22.3729401800       22.0901558200
  H        19.8310743300       16.6161261300       18.8956399800
  O        19.0083226200       16.9750301400       18.5117208400
  O        22.4466064000       18.4192284800       20.0370709800
  O        18.2539544800       16.4280709200       22.2643263500
  O        18.5313645800       21.5737784600       19.5836944600
  O        16.7102404500       17.0301545400       20.2967788600
  O        22.0284473400       22.0285955000       21.3667416200
  O        17.3405655100       20.7597229900       22.8179859500
  O        21.5244121400       16.1231834600       19.1581796500
  O        21.9503111200       17.9514662400       24.4956971800
  O        19.3608824100       18.9438962500       23.0945409800
  O        16.3325708300       19.8241189200       20.5854554600
  O        22.9800482800       19.8761929300       22.7274510200
  O        19.9891154500       19.4280745900       20.1793951400
  O        21.0278666300       15.8716370300       22.1148306600
  O        19.3544870200       22.6032247000       22.0580373300
      45
 i =        1, time =        0.000, E =      -258.3045099482
  H        18.5647111600       16.9395489400       17.7147479200
  H        21.5408857400       18.8825898700       19.8866542500
  H        22.8600606200       18.8622460100       20.5368692000
  H        18.1611630400       15.5402506800       22.8839708100
  H        17.6964963200       16.6111217000       21.7592503500
  H        17.5496527700       20.7858711700       19.8882407500
  H        18.4892216700       22.0499411600       20.3255842700
  H        17.3898557800       16.7629556500       19.8150278300
  H        16.5536688800       17.7464334700       20.6310769000
  H        22.1426518900       21.1965044000       21.5270441200
  H        21.5666505500       21.9393476800       20.3738345200
  H        17.9548861900       19.8206376600       23.2085707800
  H        18.1965524600       21.2923449600       22.9752262500
  H        21.4358278100       15.6896808400       19.9208493200
  H        22.0942415000       16.8779329700       19.2533871200
  H        21.1263763200       18.2812469000       23.9457190600
  H        21.8106173900       17.0812446500       23.3671049900
  H        19.1388542300       17.9605724200       23.0747198500
  H        19.4997217300       19.1888002500       22.1431848000
  H        16.8000542200       20.2132985200       21.8324804100
  H        15.5618609400       20.0488801900       20.6222637400
  H        22.4805649800       19.2527120000       23.0938439700
  H        23.2921386400       20.4823705200       23.0964165800
  H        19.4859658100       20.1529435000       20.1682932900
  H        19.4527372000       18.7142474300       19.8015001600
  H        20.2070134800       16.4355183000       22.1817184900
  H        21.5525876700       17.1302664200       21.5664205500
  H        19.4935392400       23.7709488400       22.5133397700
  H        20.4823849000       22.7219400500       21.8630246900
  H        19.8411113600       16.6496699400       18.5599358500
  O        18.9133142200       17.0786068700       18.6133153900
  O        22.4430836700       18.4302499800       19.8001102300
  O        18.5044776100       16.2385827700       22.2793831100
  O        18.3214843900       21.3627420600       19.6709784000
  O        16.6350292500       16.7791293300       20.4506223200
  O        21.8911824100       22.1091079800       21.2641488300
  O        17.4283469000       20.6866504300       23.2595455100
  O        21.5073020500       16.0877426500       19.0209896600
  O        21.9073140700       17.7595385100       24.1045402000
  O        19.2937264400       18.9446389700       23.0512532900
  O        16.4635352600       19.7970498600       20.9442464800
  O        22.7679645500       19.9416357300       22.4579852700
  O        19.9768380300       19.3218524500       20.3547994200
  O        21.2302211400       16.3162227700       22.0550697600
  O        19.5250566700       22.9445147100       21.9854719800
      45
 i =        1, time =        0.000, E =      -258.3122637507
  H        19.0344951600       16.9793592300       17.7313477700
  H        21.1073346400       18.8705907000       20.4390476300
  H        22.5892541200       18.8516749600       21.0045459600
  H        18.2451837200       15.3555064800       22.4168632500
  H        17.8401162200       16.7115433500       21.6602018700
  H        17.4738978100       21.1179542600       19.3322435700
  H        18.5168440800       22.1282910800       20.0040111700
  H        17.3566520400       17.2797502000       19.4849352800
  H        16.5158766300       18.0678103600       20.5025980800
  H        22.4516625800       20.9387771900       21.6822338500
  H        21.6723657500       21.1952863100       20.4209726100
  H        17.9815006500       20.2859110000       23.3566736500
  H        18.1974151200       21.7273458100       22.9639058900
  H        21.4984519400       15.4516745000       20.0792785500
  H        21.9108397900       16.8333069900       19.6171166700
  H        21.0976292000       18.3739183600       24.2035830400
  H        21.9064975600       17.2758760700       23.5958682600
  H        18.9812853200       17.7679170400       23.0555478600
  H        19.3358489700       18.9914297500       22.1596348000
  H        16.7928821100       20.5298730900       21.4470435600
  H        15.4155014400       20.2763402000       20.6188117100
  H        22.6159348000       19.1403341200       23.1188516600
  H        23.7731341500       20.1781621900       23.3667524300
  H        19.2026490400       20.2361956900       19.8758572000
  H        19.4538309900       18.6054029600       19.5497238900
  H        20.2464337000       16.1124133100       22.1050437500
  H        21.5793039600       16.7823137300       21.5864909500
  H        19.5746082200       23.6211702500       22.3655606200
  H        20.2159586400       22.4615935100       21.6014398800
  H        20.0369185000       16.3728665200       18.7720442200
  O        19.1846376800       16.9639687700       18.7565301000
  O        21.9267933500       18.2874034300       20.5491708400
  O        18.5110694000       16.2967599600       22.3295117500
  O        18.4111960400       21.5009675500       19.2333141200
  O        16.6854458300       17.1617677000       20.2316332700
  O        21.9559669500       21.6320481200       21.2451601400
  O        17.5372691300       21.0199680700       22.8698393400
  O        21.6015902200       15.9437285800       19.2220326200
  O        22.0003256700       18.1090181200       24.1138575400
  O        19.3129243000       18.7574365200       23.1233168300
  O        16.3763323300       20.0610758800       20.6415010600
  O        23.1447097700       19.9054688800       22.7057136200
  O        19.5496596700       19.3353575900       20.3099393200
  O        21.2735312100       16.0719690800       22.1167600000
  O        19.3249344600       22.7867021500       21.8901413800
      45