      30
 i =        1, time =        0.000, E =      -172.1795354401
  H        17.9447070600       17.8724047500       16.7678703700
  H        21.8516681700       16.8560629700       19.1664155700
  H        21.3061317700       17.9990526400       20.0670849900
  H        17.4273871600       16.3524910600       21.7198462000
  H        18.4076790700       16.3170449600       20.4131316100
  H        18.6297310100       24.0075279500       19.5122489300
  H        19.9501544800       22.9855722100       19.5218774200
  H        19.1662411900       16.0895879000       18.2219958000
  H        19.4026599500       14.5218058300       18.7909025700
  H        22.1295704000       22.0378648400       18.7855830300
  H        20.8364701400       21.3847125500       18.1058159500
  H        16.3456044600       18.6782835200       19.7636564000
  H        17.1111311200       18.0986134200       18.6736638900
  H        20.7422866200       18.9126672300       18.3014019100
  H        19.6361413400       20.0199365600       18.7448668100
  H        19.4236324600       18.0940811000       21.5328531900
  H        19.5302592700       19.4701449700       20.8635200000
  H        18.5201740900       21.4034017300       19.8703663800
  H        17.9144809300       20.1300512200       19.3955543500
  H        19.2444285100       18.3125334400       17.5651453600
  O        18.5174125700       17.6039040100       17.4751834800
  O        21.8474224400       17.8563844300       19.2476370000
  O        17.7661140400       16.8999158900       20.9561210100
  O        19.0650593300       23.1447470100       19.9137070400
  O        19.5165579100       15.4965061000       18.9825956300
  O        21.2695378000       22.1857275500       18.3514524000
  O        16.5748081200       18.9089074200       18.8001119000
  O        20.1489891600       19.6573322900       17.9081863800
  O        20.0941768100       18.7687509100       21.3352010700
  O        18.6108631500       20.4621284800       19.9448386100
      30
 i =        1, time =        0.000, E =      -172.1899484331
  H        18.3579861500       18.1659300200       16.1926490100
  H        21.5403322500       16.9204541200       19.0190814400
  H        21.2561102900       17.8951920600       20.1972461200
  H        18.0619979200       15.5129985800       22.0403399000
  H        18.5043283000       15.7693171500       20.5760499900
  H        17.9718300200       23.5594247600       19.2254509200
  H        19.4546469500       23.1626766500       18.8009500300
  H        19.2912527600       16.7640524400       18.2623117300
  H        19.6004614000       15.2280963700       18.1016857300
  H        21.7346924900       22.9009410100       18.5724199700
  H        20.9800057600       21.9541798700       17.6569392400
  H        16.5439496300       17.9405897700       19.2983634200
  H        17.3389704500       18.7834019400       18.3015336900
  H        20.8355842100       19.0661742100       18.4702049100
  H        19.5025346600       19.8368031000       18.7121945000
  H        19.3885350700       17.6916474400       21.9886282900
  H        19.6286088600       18.9706657400       21.2358660700
  H        18.6704066100       21.1053674000       20.4290380700
  H        17.7854007100       19.7973034200       19.9599737400
  H        19.4908936100       18.7035787300       17.1432820900
  O        18.7243938000       18.0179004000       17.0506265400
  O        21.7225158800       17.8487262600       19.3187263300
  O        17.8116429300       16.1104238900       21.2772958000
  O        18.7487068900       23.0594027800       19.5367502100
  O        19.5054954200       15.9082345000       18.7718353000
  O        21.0724667400       22.9052644000       17.8698318100
  O        16.7462482000       18.8806985600       19.0804780800
  O        20.2273747200       19.8105525100       18.0213440800
  O        20.1452352600       18.3000721000       21.7914057500
  O        18.6805265200       20.1313758500       20.2975212000
      30
 i =        1, time =        0.000, E =      -172.1841488920
  H        18.7253743900       17.3740443400       16.0187691600
  H        20.8576987900       16.8213315100       19.2549482000
  H        21.1572068000       18.0590990400       20.2473599500
  H        18.4815996200       16.9924611000       21.9390217600
  H        18.4169233700       16.1838290300       20.6651457600
  H        18.8409179300       23.8829958900       19.6727241600
  H        19.9721674800       22.8219735700       19.2063068700
  H        19.1330623700       16.5452499300       18.2865780600
  H        19.3160551000       15.0847705200       18.3227259900
  H        20.9678963700       22.6478528700       17.3054457200
  H        20.9367957900       21.2348758400       17.9582104400
  H        15.7724419800       18.9490069600       19.3884662400
  H        16.7844907600       18.1885326900       18.5460059100
  H        20.7064706900       18.8270902600       18.4816850500
  H        19.6552366300       20.0740010400       18.9426495000
  H        19.6708104700       19.1573131100       21.3063827500
  H        20.9684209500       19.7252738000       22.0096617200
  H        18.6289555900       21.3887098700       20.0296771700
  H        17.8285639100       19.9814896600       19.5974528500
  H        19.2934238300       18.5287622300       17.0625612800
  O        18.9484125100       17.5971707200       16.9494917700
  O        21.3768191100       17.6450299700       19.3504706400
  O        17.8286231600       16.7065498400       21.2377467900
  O        19.0845580600       22.9198751200       19.6346305100
  O        19.3075234000       15.7771458900       18.9702308500
  O        21.2238017700       22.1968104800       18.1198457300
  O        16.4647396100       19.0754308100       18.6889951800
  O        20.0780866100       19.6392641200       18.0962820300
  O        20.5439983800       18.8396405100       21.7773372600
  O        18.5169560300       20.4031112900       20.1871572300
      30
 i =        1, time =        0.000, E =      -172.1854993603
  H        18.7114535800       17.4940373700       16.1669902500
  H        21.2529057900       16.7984348600       19.0967131900
  H        20.8928660300       17.9576173800       20.0352748700
  H        17.5922434000       16.3786939100       22.0407917500
  H        18.5344510200       16.0718829300       20.7397342600
  H        18.8467640600       23.8749038000       19.3047676800
  H        19.8450312100       22.7306801100       18.9856393100
  H        19.1928167800       16.3890843700       18.3657739000
  H        18.4569911000       15.0858735300       18.7340003800
  H        21.9919784700       22.0769046100       18.6285832700
  H        20.9169421200       21.6507107400       17.5921780700
  H        16.5981531000       18.1778215300       19.9589277500
  H        17.0297555400       18.3746358300       18.3388503800
  H        20.7509532600       19.4837771900       17.8903473800
  H        19.4761143100       20.1705643800       18.7634887300
  H        19.3939122800       18.0152610300       21.7224624800
  H        20.0040167600       19.3790495900       21.2332464600
  H        18.6516211500       21.4577175800       20.0824831100
  H        17.9000298600       19.9570309000       19.7386475500
  H        18.8893367600       18.4348308200       17.4046446400
  O        18.4325382500       17.5879499500       17.1193270900
  O        21.4437285400       17.7625457600       19.2023188400
  O        18.1367127800       16.7915296300       21.3260005900
  O        19.2235944300       23.0278790100       19.6530301400
  O        19.2636278900       15.5838141000       18.9873113100
  O        21.3242437800       22.4756407400       17.9516128700
  O        16.8506116100       18.8271775000       19.2128122600
  O        19.8549398800       19.9419509300       17.7808471000
  O        20.2188594200       18.5163967100       21.6212681900
  O        18.6993958400       20.4432308000       20.1210060100
      30
 i =        1, time =        0.000, E =      -172.1668281339
  H        18.9874524500       17.8630326200       15.9310115100
  H        20.9231660000       16.8942647800       18.8739532900
  H        20.8688760300       17.9898367900       19.9232960600
  H        17.2102111300       16.2702260300       21.4528504000
  H        18.7360679600       16.2415485200       20.9400056300
  H        18.6311513500       23.3780738700       19.1403162200
  H        19.9961538300       22.8357631200       19.7195135700
  H        18.9525610600       16.6447013200       18.3003717800
  H        19.7513656800       15.3724832000       18.1374609000
  H        22.3046583100       22.1732845600       19.3386576300
  H        21.1008407600       21.5661965400       18.5175608300
  H        15.7849474000       18.8638242900       20.0199281600
  H        16.3862877100       17.9993073300       18.9068587000
  H        20.8978822700       19.1453155000       18.1182128100
  H        19.6043040000       19.9663610500       18.2287535800
  H        19.2906351500       18.0593047000       21.6650911600
  H        19.5378603500       19.4332740500       20.7124099900
  H        18.7954889300       21.1657153400       19.6617140900
  H        17.7353920100       19.8344567800       19.5827347700
  H        19.4164818200       18.5994143100       17.2163572300
  O        18.7798638800       17.9444660200       16.8885785900
  O        21.3764814800       17.6672725100       19.1262801200
  O        18.1209629600       16.5888847400       21.6120858100
  O        18.9772451600       22.7304275900       19.8226924500
  O        19.2803014200       15.8570596100       18.8107850000
  O        21.5234275700       22.4332328600       18.7556391100
  O        16.3317881500       18.9066697100       19.2089356600
  O        20.4441061600       19.9225292100       17.6494685600
  O        19.9582051700       18.7218868700       21.3514603900
  O        18.6569133300       20.1644617200       19.7771091300
      30
 i =        1, time =        0.000, E =      -172.1818221921
  H        18.4166487100       17.5896974500       16.3211390000
  H        21.1972359300       16.9006433900       19.0368378300
  H        21.0906216600       17.9564353900       20.1999262100
  H        17.6180726600       15.8554814500       21.8856864400
  H        18.2726485700       16.1543246900       20.5103914700
  H        18.4336495700       23.7851511700       19.0053786200
  H        19.7883401600       22.9443910000       18.9315772500
  H        18.8816986300       16.1600682700       18.3691387300
  H        19.5074235500       14.8029067000       18.6614970000
  H        21.8497866500       22.4062544900       18.7074688800
  H        21.0148726100       21.5919232200       17.6594635100
  H        16.2254878200       18.6425376300       19.6002761700
  H        17.3865637500       18.5047046300       18.6576550300
  H        20.8509781800       19.2075505400       18.2906595100
  H        19.6816525100       20.3835529900       18.5147142400
  H        19.6349454000       17.7546431100       21.8029354900
  H        19.5569000100       19.2387369300       21.3801489100
  H        18.7850421900       21.3994102900       20.2261736400
  H        17.7490799200       20.1948708300       20.1233406400
  H        19.1805954200       18.3318169100       17.4438217500
  O        18.6523857300       17.5299270900       17.2834372100
  O        21.5001105900       17.8131033000       19.2334926800
  O        17.9668766200       16.6211803800       21.3237352900
  O        18.8839352600       23.0260886700       19.3624968300
  O        19.3593128100       15.6565503300       19.1214107000
  O        21.2990077700       22.4607048100       17.8809976000
  O        16.7674957100       19.1483124500       18.9378526700
  O        20.1408249100       19.8066080100       17.8500619200
  O        20.1840681700       18.5391877800       21.6169309500
  O        18.6820179200       20.3661808400       20.3333214000
      30
 i =        1, time =        0.000, E =      -172.1863854539
  H        18.8475244300       17.4351381800       16.1120166700
  H        20.7778396800       17.0764976600       19.2344116800
  H        21.2203125300       18.1911090100       20.2482532100
  H        17.5240903200       16.4169663600       21.4803194700
  H        18.3708051500       16.1938609800       20.3051500400
  H        18.1384927400       24.0351933100       19.3798758700
  H        19.5717267400       23.4346490800       19.1933954300
  H        19.3639002800       15.7284273400       18.1020893700
  H        20.2857244300       14.9434190300       19.1676363500
  H        21.8508085100       22.2267412300       18.6695323300
  H        20.7427910500       21.5609996500       17.8285408600
  H        17.2551288500       18.1125374900       19.7640501200
  H        17.3940376600       18.2450968500       18.2445451600
  H        20.6095280300       19.2280101600       18.3820231200
  H        19.3565582000       20.1793598100       18.8048896400
  H        19.6797935100       17.8948039000       21.6722147200
  H        19.6163489500       19.4409679400       21.1980692100
  H        18.6067263900       21.4673152900       20.0796513500
  H        17.7179586200       20.0963559100       19.7788998800
  H        19.2831956800       18.2617491500       17.3637932600
  O        18.8015655300       17.3978934800       17.0756925000
  O        21.3891393800       17.8656028000       19.2632447900
  O        18.2905113100       16.7909258100       21.0187479900
  O        18.7150447900       23.3305497900       19.7611907700
  O        19.6041700500       15.6180629100       19.0854956400
  O        21.1078069900       22.4172841400       18.0501843500
  O        16.7536958800       18.4698591100       18.9761559500
  O        19.9112727400       19.8181148600       17.9682635200
  O        20.2468625200       18.7057405000       21.5325768600
  O        18.5472260000       20.5308707100       20.2322751100
      30
 i =        1, time =        0.000, E =      -172.1857366644
  H        18.1967618500       17.6362350600       16.2356815300
  H        20.6605153900       16.9306869600       19.1055382500
  H        20.9229935600       17.9560053400       20.1450757600
  H        18.2422901400       15.8038536100       21.7125065400
  H        18.4609776500       16.5112901000       20.4567067800
  H        18.6072958000       23.7128455700       19.4194413900
  H        19.9810517500       22.8911840700       19.0514319400
  H        18.8018546600       16.3056408300       18.2580509100
  H        19.0835874500       14.7522657600       18.2281842900
  H        22.3884815600       22.4244352900       18.9628988500
  H        21.2669894000       21.4584820000       18.2500283600
  H        16.5119171400       18.7195191200       19.8869833100
  H        16.8002506900       18.6670865000       18.3774363000
  H        20.8495159300       19.0501666900       18.1026109900
  H        19.7476528200       20.0564838100       18.4744868200
  H        19.4568322400       17.9777098100       22.1501956000
  H        19.9008441800       19.3290941600       21.5791217000
  H        18.8889276900       21.4323291700       19.7628807900
  H        17.8210730500       20.2416608900       19.5192927900
  H        19.0502169500       18.6025880800       17.2005120800
  O        18.4043038700       17.7495238000       17.1815096300
  O        21.2748212100       17.7387555300       19.2635723200
  O        18.2376724300       16.7281060200       21.3734839000
  O        19.1434508200       22.9098673700       19.5277827900
  O        19.1335493500       15.5379082400       18.7768383200
  O        21.5089136300       22.3861101000       18.4296096700
  O        16.3802309800       19.2331239000       19.0600004300
  O        20.2878039500       19.7090527700       17.6587639900
  O        20.2490034600       18.5144131100       22.0496942800
  O        18.7836632300       20.4197491600       19.6507811000
      30
 i =        1, time =        0.000, E =      -172.1906910617
  H        18.2863250300       17.8746293700       16.1654606700
  H        21.1735893400       16.8915111500       19.3773995100
  H        21.0144851400       18.0377754200       20.2694865400
  H        18.0723541600       16.0106110900       21.8868986400
  H        18.6269481700       16.2012409200       20.5381949700
  H        18.3041740400       23.6082672600       18.7084965000
  H        19.6396804800       22.8401106500       18.8468898900
  H        19.4089886800       16.2507915900       18.2915276200
  H        19.2969998800       14.7787574500       18.7715574100
  H        21.9164570900       22.1039068400       19.0716625000
  H        20.9801572400       21.5516202300       18.0012776700
  H        16.8990767000       17.9393479700       19.6284009100
  H        17.1745294800       18.5413511400       18.2919905800
  H        20.7396290400       19.0867929000       18.3173396600
  H        19.5532520400       20.0796174300       18.5307065900
  H        19.5436434600       17.9496659600       21.9328685500
  H        19.9237893400       19.3286042200       21.3662202300
  H        18.4613949800       21.4142871800       19.6716777000
  H        17.8490574400       19.8777963200       19.8114180900
  H        19.3191937400       18.5112234000       17.2046596900
  O        18.5065469800       17.9059125200       17.0965461900
  O        21.4214013900       17.8988612200       19.3455590700
  O        17.9218301600       16.6327331100       21.0947728900
  O        18.8115216500       23.0286964000       19.3343156900
  O        19.6119603200       15.6327925100       19.0344377200
  O        21.3298971800       22.4016391000       18.3552302600
  O        16.6460039200       18.7503705000       19.1084976100
  O        20.1651906700       19.7089951100       17.8473012700
  O        20.2443126100       18.6332493600       21.9625356400
  O        18.7104931100       20.4330106200       19.8051215100
      30
 i =        1, time =        0.000, E =      -172.1872552975
  H        18.8869189200       17.8106723000       16.2964193700
  H        21.2238027200       17.0555073100       18.9847028200
  H        21.0457203900       18.2287118900       19.9362309200
  H        17.6137244200       15.9892742000       22.0453195400
  H        18.3829980600       15.9920607400       20.5524108000
  H        18.6770037000       23.7467203300       19.1777373900
  H        19.9761487300       22.9159978300       19.1318419800
  H        18.9784570300       16.3426903500       18.1540286900
  H        19.3186067100       14.8214662800       18.5847413800
  H        22.1042737400       22.0729477800       18.9570209200
  H        21.2015588300       21.6595337200       17.8602358200
  H        16.9725357900       17.9112478000       19.7502518100
  H        17.0445444200       18.3443533200       18.1933773500
  H        21.1177549100       19.5645194400       18.0438768200
  H        19.8882938500       20.2439930100       18.6589914100
  H        19.5251682800       17.9333394300       21.8568667800
  H        19.3478297600       19.3100704400       21.2208931700
  H        18.3580369900       21.3123801600       20.0579589900
  H        17.7934033400       19.8860780300       19.6125441000
  H        19.5048924000       18.4279580100       17.5703927200
  O        18.8397542000       17.7692726100       17.2322561300
  O        21.5778763900       17.9315600000       19.1414909700
  O        17.7410609600       16.4560012400       21.1848049300
  O        19.1596085500       23.0854706100       19.7046119800
  O        19.0725925200       15.6574869200       18.9083564300
  O        21.4354180500       22.4923712400       18.3850407300
  O        16.5925986000       18.5329642900       19.0797160900
  O        20.2478734500       20.0216649000       17.7648924600
  O        20.0471915600       18.7452829100       21.6043180200
  O        18.6061699500       20.2906113200       19.9812426200
      30
 i =        1, time =        0.000, E =      -172.1821824725
  H        18.5802835000       17.8013119500       16.4486466900
  H        21.0960173800       17.0532829900       19.0563487800
  H        20.9733267700       18.0995733800       20.3440058600
  H        17.7843407000       15.5758344400       21.7101552300
  H        18.6172272700       16.1539254600       20.4473529800
  H        18.8684086900       23.9019018200       19.3357860800
  H        20.0269729700       23.0213671200       19.2380399100
  H        19.1843677400       16.0301519200       18.0001429900
  H        19.7056647000       14.6637929500       18.7863901800
  H        22.0312155800       22.3367527900       18.5771527100
  H        21.0127426000       21.6537221600       17.7475564100
  H        15.9287613100       18.1614476000       19.5116883600
  H        17.0280491300       18.5062823600       18.4041175800
  H        20.9833235400       19.2809195700       18.5930822600
  H        19.5416340200       20.1346829100       18.4993950700
  H        19.1193071400       18.1146685400       21.6842901000
  H        19.4631756400       19.5533531400       21.0356664000
  H        18.4126653100       21.6231456400       19.8438279000
  H        17.5948529900       20.2609843100       19.7870133800
  H        19.5012095500       18.2414996600       17.5122122800
  O        18.9068765400       17.4713889800       17.2823923700
  O        21.5019015500       17.8341205900       19.4930472700
  O        18.0017278000       16.3880855400       21.1788690400
  O        19.2614876500       23.1481636900       19.8528719700
  O        19.6771411900       15.6283340200       18.7741310900
  O        21.1544479200       22.5197766500       18.0909270800
  O        16.2886257400       18.8967997100       19.0129308100
  O        20.2919372200       19.7055023200       18.0220716900
  O        19.8839967300       18.7239315800       21.3976317400
  O        18.4470197800       20.6288386800       19.8870848400
      30
 i =        1, time =        0.000, E =      -172.1889381978
  H        18.8402936200       17.4390025600       16.0642407800
  H        20.8970986200       17.0357735200       19.3481932800
  H        21.0102098900       18.3480194800       20.2180190300
  H        18.0369909300       16.2367938600       22.1658118700
  H        18.3408423000       16.2446966400       20.6949107200
  H        18.2965366100       23.5167885300       19.3152712900
  H        19.7345571200       22.9860055700       19.0076214200
  H        18.9827596800       16.1211084500       18.2311843600
  H        19.8007651300       14.8894215800       18.4852832900
  H        22.1151833800       22.1189226700       18.5017229900
  H        20.9200207100       21.5274409800       17.6206694400
  H        16.0418340200       18.2007126000       19.1143328600
  H        17.1308595100       18.7937971500       18.2565927900
  H        20.7597543800       19.1470591800       18.4219573100
  H        19.5500516900       20.0833298100       18.5666398700
  H        19.5433956600       17.8285402300       21.7756171500
  H        19.9360406200       19.3381211400       21.4662147500
  H        18.5298788700       21.3808515400       19.9964155800
  H        17.8142502400       19.9566707600       20.0222138200
  H        19.3197348100       18.4742028100       17.1775681500
  O        18.7715969800       17.6489226600       17.0417054700
  O        21.3050553500       17.9583222700       19.3335135700
  O        18.1993215100       16.8282619500       21.3868074500
  O        19.0536978200       23.0393399700       19.7408090000
  O        19.2473028900       15.5210109600       18.9910046500
  O        21.2172512700       22.3517807900       18.1364813400
  O        16.4195969100       19.0578945400       18.8363691400
  O        20.1635701900       19.7217564900       17.8277555800
  O        20.3160947200       18.5073359800       21.7556727400
  O        18.7123806900       20.3419026500       19.9489200000
      30
 i =        1, time =        0.000, E =      -172.1858173706
  H        18.5584538200       17.7459660500       16.0081713000
  H        21.1972696100       17.1957973700       19.1071274800
  H        21.2388930000       18.2598465400       20.2934294300
  H        17.7247934600       15.4773210300       21.6529210700
  H        18.5462526700       16.1187573900       20.4815154900
  H        18.5265022200       23.5874153900       19.6245407700
  H        19.8736558400       22.8806178000       19.3959305900
  H        19.2922620500       16.5841476200       18.2306666100
  H        19.4441719500       15.0350375200       18.4445531700
  H        22.1572587200       22.2704706300       18.8745949400
  H        21.1499979700       21.3908403000       18.1443480900
  H        16.2298099300       18.5907245600       19.5607631200
  H        17.0378825800       18.6585122500       18.2185675800
  H        21.0160347300       19.1368081100       18.0805055400
  H        19.8162928300       19.9827947100       18.6928478500
  H        19.2000300900       17.8571362000       22.0241152200
  H        19.3519363900       19.3060801300       21.4914937400
  H        18.6351612000       20.9483426500       19.9967003500
  H        17.7384877300       19.7296791900       19.3414275400
  H        19.2067671300       18.5601979400       17.1894239800
  O        18.5134195500       17.8640619100       17.0107287700
  O        21.7192057500       17.9956948400       19.4386103300
  O        17.8917034000       16.3490549000       21.1819316100
  O        19.1387335300       22.9491661900       20.0250222600
  O        19.5675720300       15.9040040100       18.8691260500
  O        21.3241797300       22.3614341000       18.3041868000
  O        16.3881085300       19.1114915100       18.7468031100
  O        20.3280086700       19.8417230000       17.7475539300
  O        19.8859170800       18.5939947000       21.9587553700
  O        18.6275447900       20.0280027200       19.6909198400
      30
 i =        1, time =        0.000, E =      -172.1815649097
  H        18.4953266800       17.3990206100       16.0376146200
  H        20.7170408400       17.2346582600       19.4050368400
  H        21.2345164100       18.3189222400       20.3269752300
  H        17.2134981800       15.9006981300       21.6482973200
  H        18.3818800100       16.0467225400       20.6329217900
  H        18.3072091800       23.1508663600       19.4575440300
  H        19.7468219100       22.6367804500       19.4207927600
  H        19.1338505800       16.7748882100       18.3684718600
  H        20.0748160400       15.5606699100       18.4708587700
  H        21.7607169400       22.5590221700       17.7941383600
  H        20.7394720200       21.3553090300       17.9290991400
  H        16.0786000700       18.8780052700       19.5265344600
  H        17.0864067200       18.4950055500       18.3917645800
  H        21.0934957400       19.1239517600       18.1337866900
  H        19.7627801600       19.9014906500       18.2263154000
  H        19.4199803200       17.6707828700       21.6196534600
  H        19.5204685800       19.1198154600       21.3921759700
  H        18.7898100600       21.2847784400       20.2262062300
  H        18.0872012300       19.9029309900       19.6639829400
  H        19.1188480300       18.5547056600       17.0102062200
  O        18.5543298900       17.7442159700       16.9932370900
  O        21.4499039600       17.9131717500       19.4537541500
  O        17.8950805600       16.5335019300       21.3344050900
  O        19.0696331000       22.9087813300       20.0469081800
  O        19.5224064200       16.0997251700       19.0068676300
  O        20.8295226000       22.3569720500       17.9896757100
  O        16.7354424000       19.2359301900       18.8730888600
  O        20.3902296600       19.5359611500       17.5515219000
  O        20.0664705800       18.3539114100       21.7076614600
  O        18.9456665000       20.2816452900       20.0903124500
      30
 i =        1, time =        0.000, E =      -172.1808031344
  H        18.7363679800       17.6307655000       16.1387018000
  H        21.3792018600       17.1974039400       18.8749166000
  H        21.0620363000       18.0430252800       20.1957486200
  H        17.1522751900       16.3644857200       21.7184424300
  H        18.2527295500       16.2132581400       20.5556091900
  H        18.7851372700       23.7839789000       19.3577820400
  H        19.9590287500       22.9313704100       19.6491428000
  H        19.0961818200       16.3122238200       18.0391671300
  H        18.9258540000       14.8974475900       18.7169118000
  H        22.3490924100       22.3367559500       18.0639062400
  H        21.0903831000       21.3651569200       18.3572103200
  H        16.8778249000       17.9493597800       19.1906172600
  H        16.8087723400       18.7907353200       17.9102674500
  H        21.0865299500       19.1419459300       18.4070316500
  H        19.6701214500       19.9916925900       18.7264590700
  H        19.6683206400       17.6394522400       22.0759995900
  H        19.2234654000       18.9198077500       21.2235282500
  H        18.5897150700       21.2920143800       20.3618348600
  H        17.8397984000       20.0034932800       19.8526596700
  H        19.1675854900       18.4514266200       17.3319173000
  O        18.6267905300       17.6724162800       17.0803347600
  O        21.7306959300       17.9907341700       19.3416567500
  O        17.4345099500       16.7114080500       20.8667466500
  O        19.1855928800       23.3434376200       20.0860060600
  O        19.3368386800       15.7324692000       18.8647796800