      21
 i =        1, time =        0.000, E =      -120.5248351825
  H        18.1050521700       19.1372952600       16.8125872800
  H        20.8510745300       22.5271556400       18.0165526200
  H        20.7103078500       20.9507499100       18.2970813200
  H        20.9111026700       19.5897727200       19.9272526600
  H        19.5474697900       20.3284044600       19.7523162500
  H        16.6668937400       19.0955780500       18.4884892700
  H        15.3263462000       19.7543986900       18.9295421100
  H        17.4580249300       20.4014917600       20.0621755300
  H        18.0542842600       21.5996577900       19.3241660400
  H        19.1698723000       20.8437302800       15.4403430400
  H        20.0600005400       20.8620989000       16.7386262000
  H        18.2195285400       21.6701708000       17.0710687400
  H        16.9864758400       22.1714392000       17.6933239600
  H        17.9264682100       17.7150981200       17.4205058300
  O        17.4508858500       18.4541468500       17.0073436800
  O        21.1307871000       21.6117446700       17.6369322000
  O        20.2687724900       19.8388437300       19.2281068300
  O        16.1634620000       19.3961009600       19.2627256100
  O        18.1756231100       21.1362631200       20.1854601100
  O        19.2519815200       20.4810491600       16.3116721700
  O        17.9187429100       22.4188427200       17.6285600800
      21
 i =        1, time =        0.000, E =      -120.5063236175
  H        18.3285804400       18.9004305900       16.5757258200
  H        21.1232033800       22.3893480300       17.9179954700
  H        22.0351709400       21.2881868900       18.4057009900
  H        19.9866810100       18.8086109800       20.1132919700
  H        19.2851403000       20.0838346600       19.6750909200
  H        16.2482419000       19.0873478000       18.0254586300
  H        15.4984350500       19.2258501600       19.4413899900
  H        17.1799350500       20.8097705200       19.7925632900
  H        17.9921220200       22.0507195500       19.6252911400
  H        19.9517905000       20.5481667100       16.3473354700
  H        19.6414864200       19.8921404000       17.8374168800
  H        18.1074398300       21.9915632500       17.4064543000
  H        16.6965298500       22.3284979400       18.0088480900
  H        18.0222034800       17.3776584500       16.3436364300
  O        17.6035018000       18.1682325800       16.6647500300
  O        21.9029463600       21.9391627500       17.6902068700
  O        19.9915808100       19.4022914000       19.3121950900
  O        16.0400876000       19.6969181300       18.8001983700
  O        18.0820714400       21.1703495200       20.0353288000
  O        19.2280506500       20.2694106500       16.9676035100
  O        17.5054602000       22.8081232200       17.6933553100
      21
 i =        1, time =        0.000, E =      -120.5308921749
  H        17.8944672700       19.4037034800       16.6086423800
  H        21.2483951800       22.1509602400       18.2366519900
  H        21.1316805700       20.6289097200       18.5136862700
  H        20.8664940000       19.1970100600       20.0095641100
  H        19.5682426300       20.0052019800       19.7011885900
  H        16.2298120400       19.0481298900       18.3389870100
  H        15.1269665200       19.2447987200       19.4200860000
  H        17.4142130500       20.4224301800       19.9742683300
  H        18.1471750900       21.6051557600       19.3229579700
  H        19.4608714300       21.2778650700       15.3979794000
  H        19.9823330700       20.8023690900       16.8373431700
  H        18.3365712500       22.1146847700       17.1600620300
  H        16.8027719400       22.2347934000       17.6230366100
  H        18.1867211700       18.0363466300       16.9970863700
  O        17.3913523100       18.6135102600       16.9421100500
  O        21.5105693700       21.3256119800       17.8466255200
  O        20.3313881300       19.4883006400       19.2513592500
  O        15.9476390600       19.5973584300       19.1172558600
  O        18.2916715000       20.8609757900       19.9770641400
  O        19.1312802900       20.9149387400       16.2490863500
  O        17.7309124600       22.5662022400       17.8667457500
      21
 i =        1, time =        0.000, E =      -120.5154489886
  H        18.2419517300       19.2756634700       16.8995254400
  H        21.4592320700       21.9793656300       18.2148083200
  H        21.1860549800       20.5367220500       18.2090393500
  H        20.4376564200       18.6598695600       19.3540665300
  H        19.6343166200       19.9797301700       19.7144404700
  H        16.4209020700       19.5269834500       18.1496567600
  H        15.4999782400       19.0607366200       19.3596400800
  H        17.5251021300       20.4680219100       20.0073491400
  H        18.3561392100       21.6249845600       19.8944668300
  H        19.4187908900       20.7674848800       15.4532576100
  H        20.0414275800       21.0570473300       16.8164341400
  H        17.8405499500       21.8688203500       17.3515206800
  H        17.2645760600       23.3278458600       17.3329886200
  H        18.1129695700       17.8507825600       17.6340210400
  O        17.6667531800       18.5030509100       17.0197756700
  O        21.3077250700       21.2872776600       17.5271593100
  O        20.3140491700       19.5672966600       19.0984543800
  O        15.9488575500       19.8816065200       18.9427062800
  O        18.3795872300       20.8055596500       20.3658063800
  O        19.1707803800       20.7491124800       16.4002409700
  O        17.4813517000       22.5848578900       17.8803734400
      21
 i =        1, time =        0.000, E =      -120.5323539569
  H        18.2929758700       19.4245059600       16.6740998100
  H        21.6429069300       21.8992518300       17.9452434500
  H        20.9403031600       20.4962610400       18.1805010500
  H        20.6529443900       19.5268323200       20.1051498600
  H        19.3418549600       20.1837447500       19.5463861200
  H        16.5818619400       19.2509668900       18.4767503800
  H        15.9189314700       18.6816901500       19.7792579000
  H        17.3857302400       20.6333041500       19.9687200600
  H        17.9757616900       21.8933880800       19.4551648800
  H        19.5101225800       20.7089995700       15.0881244100
  H        20.1473139500       20.9537673300       16.5348874700
  H        17.9778669100       21.8959540500       17.0536936500
  H        16.5714971600       22.4477087200       17.4434989800
  H        17.9663216700       18.1931036900       17.5777371100
  O        17.5328586800       18.9905244800       17.1797226700
  O        21.4927643500       20.9903569900       17.5511417600
  O        20.1006762000       19.5442138100       19.2931072100
  O        16.2083218300       19.5262526700       19.3748384000
  O        18.1746299200       21.1939295900       20.1313489100
  O        19.3072089700       20.6773731400       16.0653022800
  O        17.4862414800       22.4431688100       17.6744634100
      21
 i =        1, time =        0.000, E =      -120.5246638033
  H        17.9824018100       19.2650512100       16.4998984100
  H        21.7199260100       21.9878807000       18.4386883900
  H        21.3784639400       20.4623197800       18.5073474000
  H        20.8592717500       19.1797185500       20.3799621000
  H        19.6357461400       20.1559916600       19.9694478100
  H        16.3611770400       19.3455435300       17.7741979600
  H        14.9324055600       19.6592702000       18.6729597300
  H        17.4571590200       20.6057528100       20.1023594900
  H        18.2099307600       21.7806530500       19.5486931600
  H        19.5753764500       20.9131092400       15.6132157300
  H        19.8271022400       20.7835373500       17.0955436000
  H        17.9260239200       21.7804030500       17.3971114400
  H        16.8722710300       22.6619700900       18.0174859300
  H        17.6890844700       17.7683749900       16.9688110200
  O        17.2200509400       18.5658819300       16.5835290700
  O        21.5519802300       21.2234220600       17.8887635200
  O        20.3737762500       19.5694269800       19.6082814200
  O        15.9314436000       19.7552645100       18.5790389400
  O        18.2806245600       21.0661499500       20.2331745600
  O        19.1442916700       20.5671883700       16.4109597500
  O        17.8307793800       22.6083989000       17.8933128700
      21
 i =        1, time =        0.000, E =      -120.5148925344
  H        18.0758223300       19.1223717100       16.4508864800
  H        21.6426371900       22.0126505100       17.7019564500
  H        21.1660004100       20.7093746300       18.3403989700
  H        20.9845219800       19.2091452000       19.9018238000
  H        19.6206813500       19.9100017500       19.6710791600
  H        16.1207935300       19.5533932700       18.3165344900
  H        14.8179179700       19.6874682200       19.0708330900
  H        17.2740065100       20.5401823400       20.3797805600
  H        17.9089638200       21.6304954000       19.5854503700
  H        19.3777021300       21.2415691000       15.3950199500
  H        20.0366915700       20.7121041200       16.6280606800
  H        18.2932628000       21.8733215400       17.2888030600
  H        16.8484142400       22.5519969500       17.7795716000
  H        18.1720199000       18.3105080400       17.6468913000
  O        17.4955132400       18.3990146200       16.9628862100
  O        21.5127610800       21.0665941700       17.4892330600
  O        20.4271726400       19.6307923700       19.1923348900
  O        15.8141025800       19.7817031300       19.2018057100
  O        18.1599068300       21.0154666400       20.3212473300
  O        19.1237144000       20.7857415000       16.2435562700
  O        17.8052511800       22.6313720400       17.8382037700
      21
 i =        1, time =        0.000, E =      -120.5034515913
  H        18.0641814400       19.1214822900       16.9164478000
  H        22.0351775000       21.8860205100       18.2029711100
  H        21.2690702800       20.6129111500       18.2344702400
  H        20.3080839200       18.5893918800       19.1896950800
  H        19.5656177100       20.1101235300       19.4865982600
  H        16.3584318100       19.3377944700       18.1870577300
  H        15.8328075700       18.7932222600       19.5298249700
  H        17.3093244800       20.7001095300       19.8912656600
  H        18.1742620200       21.9559222500       19.5439885800
  H        19.9241414200       19.7647636700       16.2557723100
  H        19.8380458300       21.2982390100       16.4875884700
  H        17.7611211000       22.3513941300       17.1978415600
  H        16.4887941100       22.6430563600       18.1188219500
  H        17.1988390400       17.9732503200       16.2615955100
  O        17.5947958000       18.2372005400       17.1090236000
  O        21.4802691900       21.3798013200       17.6379769700
  O        20.3961836700       19.5983765200       19.1938995800
  O        15.9537739100       19.6746059800       19.0751121100
  O        18.2959131500       21.0737453300       20.0309354900
  O        19.2319579200       20.5014563600       16.2764693500
  O        17.3988560100       22.9669007900       17.9670012000
      21
 i =        1, time =        0.000, E =      -120.5201120414
  H        17.7958431900       18.8529444300       16.4291468500
  H        21.5336536000       22.5126147500       18.0403599600
  H        21.2688977000       21.1055623900       18.7607250300
  H        20.3934813000       19.1158171100       20.1953750700
  H        19.5084227100       20.1441582800       19.4569420500
  H        16.1985323900       19.1588625300       18.3072477400
  H        14.9447538600       19.6506262600       19.0212985500
  H        17.2325544200       20.5790323200       19.8878637700
  H        18.0279913400       21.7065638400       19.1941569700
  H        19.5333201100       20.3806153500       15.4827547100
  H        20.1411565800       20.5234078800       16.9269044700
  H        18.3134810600       22.2372499600       16.9638750300
  H        17.1935002800       23.2154282700       17.4217720400
  H        17.5746413000       17.5998635700       17.3482725000
  O        17.0941901700       18.2975830400       16.8544211400
  O        21.4818958500       21.5385668200       17.8496425100
  O        20.4051513400       19.6119494800       19.3271464600
  O        15.9140767400       19.6065914400       19.1619668800
  O        18.1140660500       21.0349970100       19.9466743600
  O        19.2584720000       20.3666654500       16.4751029200
  O        18.1133624600       22.8720880000       17.6797007000
      21
 i =        1, time =        0.000, E =      -120.5201123931
  H        18.0769640400       19.0322010800       16.5832828500
  H        21.2418137000       22.0657566400       18.5803453100
  H        21.5882207900       20.5423432200       18.3804212100
  H        20.6683641100       18.5428752800       19.7515248800
  H        19.6744561700       19.7841236500       19.7653167600
  H        16.4610666800       19.3729149900       18.0737296400
  H        15.6265957400       19.4675636700       19.4189084100
  H        17.5866447200       20.5005141400       19.9968188900
  H        18.3483451100       21.6687759700       19.5303347400
  H        19.1198668500       21.1330720300       15.6416473900
  H        19.8672975600       20.6546986200       16.9256046100
  H        18.1588524900       22.0745163600       17.2792760300
  H        16.8018928500       22.1188423400       17.9075226700
  H        17.7938850800       17.5148132400       17.0333130900
  O        17.3685428000       18.3668768700       16.7685910800
  O        21.4162899900       21.3870404100       17.8722480100
  O        20.3775799100       19.2930419900       19.2372380500
  O        16.1596664300       20.0234215400       18.7365425300
  O        18.4277712000       20.9775588900       20.2240242300
  O        18.9050324800       20.7643607300       16.5459277700
  O        17.6410221900       22.6616632600       17.8199024900
      21
 i =        1, time =        0.000, E =      -120.5112172403
  H        18.1983655000       19.2651543500       16.8050761000
  H        21.2160440600       22.1637068400       18.2973262500
  H        21.3466577400       20.6076756200       18.3383355300
  H        20.6233722500       18.5447635000       18.8054934200
  H        19.6941278400       19.7573805400       19.2824637600
  H        16.3606406700       19.0638319500       18.0493619600
  H        15.2190714000       18.7099217500       18.9728915800
  H        17.3705414500       20.0186103200       19.6868152400
  H        17.7972272400       21.4913512400       19.4849431100
  H        18.8846495000       21.4739515600       16.0806542400
  H        19.9409571300       20.8891941000       17.0626086700
  H        18.0578010400       22.2435641500       17.5906424100
  H        16.8438383500       23.2372027700       17.8476748200
  H        18.2316101100       17.7414850500       16.8076956000
  O        17.6554482300       18.4590268700       17.0619308500
  O        21.5145404300       21.4357639400       17.7549290000
  O        20.6373817400       19.4999926300       18.9710505500
  O        15.7755899400       19.4751393500       18.7741777300
  O        18.1067157100       20.6706957400       19.8740222900
  O        18.9658112000       20.8101916700       16.8234247600
  O        17.7178723700       23.0768592900       18.0555779300
      21
 i =        1, time =        0.000, E =      -120.5028172763
  H        17.6916030400       19.2664991600       16.5771523300
  H        21.5665934500       22.2356709800       18.5033638200
  H        21.2630429900       20.8235141500       18.4630065600
  H        20.7890827000       19.1766172900       20.0341718800
  H        19.4934941600       20.2059962100       19.6677532600
  H        16.5066014200       19.1589550000       18.3523234200
  H        15.1423532100       19.7169541100       19.0409421500
  H        17.4301834000       20.6008395700       19.6254402300
  H        18.2838226000       21.7061199400       19.6545471800
  H        19.7358748400       19.8167414600       15.8479700900
  H        20.1663749600       20.8587839800       16.8410432700
  H        17.6209862600       21.6037649200       17.2730084300
  H        17.4941047200       23.1322801700       17.0526931900
  H        17.8414640000       17.8227413300       16.9556966200
  O        17.1904975800       18.4845065900       16.7710780200
  O        21.5705395500       21.5369703400       17.8932740500
  O        20.3459305000       19.7119369500       19.3742639500
  O        16.1112072200       19.7739241200       19.0212992200
  O        18.2373149000       20.8260732200       20.1518710400
  O        19.3630318200       20.5898220100       16.2849494600
  O        17.4766704800       22.4466185200       17.7694151200
      21
 i =        1, time =        0.000, E =      -120.5065696981
  H        18.0813956100       18.9441773900       16.8497181000
  H        21.2305631700       22.2978514000       17.9618995000
  H        21.2813067300       20.7816414800       18.4645559100
  H        21.2103436700       19.4610917600       20.0839927800
  H        19.7633336700       20.1503238400       19.8795128300
  H        16.5354480200       19.1739912000       18.3913460500
  H        15.1428431900       19.3819821200       18.8670107900
  H        17.5654457500       20.7646297100       19.5820110600
  H        18.3732316400       22.0366068000       20.1276337100
  H        18.8402477900       20.9912474700       15.5504170900
  H        19.9311051700       20.9281523200       16.7164624300
  H        17.6347896100       22.5674656400       16.9754741500
  H        16.7647266600       21.9940478600       18.2482175600
  H        18.1168565400       17.3768436100       17.3574947100
  O        17.5470694000       18.1442415700       17.0101867000
  O        21.3553204500       21.3908292600       17.6328885000
  O        20.5311417800       19.7114356400       19.3990757300
  O        15.9860428800       19.8812634200       18.7625515900
  O        18.3037830400       21.0299809800       20.1463939700
  O        19.1822012100       20.4553730600       16.3095474300
  O        17.4245339800       22.7110767900       17.9320044000
      21
 i =        1, time =        0.000, E =      -120.5031272240
  H        18.0450665800       19.0542583700       16.3573173700
  H        21.5655780700       21.8836878200       18.2603210900
  H        21.0597165800       20.5011701200       18.0803106600
  H        20.5131507600       19.6029273900       19.7761554100
  H        19.2154721400       20.1419584600       19.3009642600
  H        17.1606334200       19.2248815800       18.2705853300
  H        15.9392556900       19.0706780000       19.3389895300
  H        17.2124898000       20.7220763900       20.1081816200
  H        17.6912178300       22.1856420800       20.3175511100
  H        19.2034421000       20.7999416400       15.2725257300
  H        19.8630541900       20.9420305000       16.6742296300
  H        18.1296063600       22.6251209200       17.5466026800
  H        17.0145753200       21.6304633600       17.5571776100
  H        18.5930233800       17.9549437400       17.4019406700
  O        17.7680119800       18.3832711500       17.0642089200
  O        21.7162823000       21.1675179300       17.6707103900
  O        19.9990025600       19.6123376500       18.9507778700
  O        16.5162905800       19.7451377800       18.9365333500
  O        18.0049597200       21.2746751400       20.4705220600
  O        19.0443614700       20.6059957500       16.2696220900
  O        17.2348986100       22.5674144700       17.8802290900
      21
 i =        1, time =        0.000, E =      -120.5157942003
  H        18.0790591800       18.7959942000       16.9448998200
  H        21.3434170100       22.6368455500       18.1077742700
  H        21.1457599600       21.2127254900       18.7157172100
  H        20.8119519200       19.1242979000       19.9022034600
  H        19.5213919400       19.9405531600       19.6661690700
  H        16.0979623700       19.0381050400       18.1843066100
  H        15.1024031000       19.0442745300       19.4074328700
  H        17.2893697500       20.4965633900       20.1071990600
  H        18.0661540600       21.6282846300       19.3370038400
  H        19.7789126800       20.9999544100       15.3522769500
  H        20.0266183400       20.9526691900       16.8740110300
  H        18.3223442700       22.1305502200       16.9809308800
  H        17.1564433800       23.0459676800       17.6398279600
  H        17.7395500700       17.4945802400       17.5101669100
  O        17.2345621700       18.2236882500       17.0421177100
  O        21.6536711500       21.7219643600       18.0464602600
  O        20.2102974600       19.4248634800       19.1668149400
  O        15.7622863600       19.6445760500       18.8875278700
  O        18.1582443900       20.9488429200       20.0928879200
  O        19.3023835300       20.7685957800       16.1998682100
  O        18.0080365000       22.6111183700       17.7774997800
      21
 i =        1, time =        0.000, E =      -120.5074002747
  H        18.0656556100       19.1995065900       16.7908000200
  H        21.3777092000       22.3960759700       18.5521670400
  H        21.6206777000       20.9477944800       18.5675775800
  H        20.5548368400       19.0222490100       19.9230580700
  H        19.5036206600       19.8890527800       19.3697979800
  H        16.1048326100       19.3713381000       18.0294233400
  H        16.0875559600       18.9260111300       19.5071170100
  H        17.2720172800       20.4555137700       19.4582579900
  H        18.1756659500       21.5418696500       19.2323851000
  H        19.4718602400       20.8208911900       15.7273143700
  H        19.5809784800       20.4531938100       17.1652452100
  H        18.3351169100       22.3463847300       17.0712559400
  H        16.8439095400       22.3992424900       17.7046762000
  H        18.4008256700       17.7606614300       17.2330081700
  O        17.6294604500       18.3457216000       17.1427664700
  O        21.6835221000       21.7056121100       17.9524540800
  O        20.3553164600       19.5098061200       19.1104166400
  O        15.7281037200       19.6099635500       18.9109018100
  O        18.1533366900       20.8071582400       19.8607741300
  O        18.9168696500       20.6532766500       16.4720649200
  O        17.8052916300       22.7758445000       17.7888638500
      21
 i =        1, time =        0.000, E =      -120.5170466040
  H        18.0916820900       18.6397706500       16.8446478800
  H        21.3536548600       22.5073419800       17.4547606700
  H        21.0594449300       21.3212975900       18.3869326000
  H        20.9854170700       19.3494924000       19.9062084000
  H        19.5340800000       20.1417708200       20.0070107000
  H        16.2339907700       18.9503979200       18.7073822800
  H        15.4848999600       20.2100319500       18.3612790200
  H        17.3045529000       20.6850092900       20.0240151100
  H        18.1707406800       21.7722696900       19.4378332800
  H        19.3215355300       20.3555672200       15.2356988800
  H        19.9396953400       20.6547812900       16.5839655400
  H        18.3990825600       22.0599883100       17.1441814700
  H        17.6517424600       23.3109736000       17.6261371000
  H        17.4948358400       17.1356633200       17.1778030900
  O        17.2997848000       18.1070035300       17.1136844300
  O        21.2464158300       21.5228739400       17.4472092600
  O        20.3147823800       19.9268090300       19.3796742600
  O        15.7993926600       19.7357345700       19.1345648500
  O        18.2249640300       21.0920776100       20.1826420800
  O        19.0870773500       20.2527556300       16.1610245300
  O        18.3227892800       22.6715543300       17.9098045100
      21
 i =        1, time =        0.000, E =      -120.5230464397
  H        18.1599074900       19.1301770700       16.8072984700
  H        21.2218515000       22.2351475500       18.0800590200
  H        21.2538642900       20.7049609500       18.4531360900
  H        20.8621970700       19.5387033000       19.9952780600
  H        19.4251298000       19.9100039200       19.5663091100
  H        16.2780871300       19.4300837600       18.0911503000
  H        14.9291429800       19.7643181300       18.6444024900
  H        17.2878336900       20.7425710900       19.9656234000
  H        18.3930975700       21.8482215400       19.8240684800
  H        19.5929464700       20.4773590600       15.5794990300
  H        20.0749414900       20.7052189900       16.9868924200
  H        18.5655075200       22.2926983000       17.2036870100
  H        17.3076325900       21.9367024300       17.9203666600
  H        17.5908243200       17.7071184500       17.3701497500
  O        17.3247455900       18.5037327500       16.8802211500
  O        21.3766618800       21.3741207800       17.7288888700
  O        20.2604293200       19.4098569700       19.2742786300
  O        15.8537067700       20.0360053400       18.7500812500
  O        18.2705581300       20.9197561800       20.1839318300
  O        19.2079457300       20.4390320200       16.4737185100
  O        18.0063498800       22.6685847500       17.9373033800
      21
 i =        1, time =        0.000, E =      -120.5145846524
  H        18.2790276400       19.2596159000       16.6659219600
  H        21.2075529300       21.9597764700       18.4344402800
  H        21.0992464400       20.5109397900       18.4257933300
  H        20.6248854400       19.1527815100       20.2618017200
  H        19.3363599100       19.9954174500       20.0369937800
  H        16.6676702800       19.3324316200       18.2453008000
  H        15.2985281900       19.2240885100       19.0347607900
  H        17.3523268500       20.8297650700       19.7918580900
  H        18.1906972700       22.0292771200       19.4287861200
  H        19.5636967000       20.3645383600       15.4334535100
  H        19.9281496200       20.7027230900       17.0246146100
  H        18.4127692400       22.2148882800       16.9978866700
  H        16.9562003200       22.6712914100       17.2682102500
  H        17.7427660500       17.7105255500       16.8989274100
  O        17.4760487100       18.6528808100       16.8540177800
  O        21.2919849800       21.2764720700       17.8388395700
  O        20.0773540200       19.4601592400       19.4865552500
  O        16.1447663900       19.6600428800       19.0613705100
  O        18.2219250200       21.2085447700       19.9923379900
  O        19.2436706400       20.4380929500       16.3417348400
  O        17.8624831400       22.6842070400       17.6875375700
      21
 i =        1, time =        0.000, E =      -120.5166974061
  H        18.2451737100       19.1014396200       16.9597089300
  H        20.2894384800       22.0972969200       17.7696437800
  H        21.0157419300       20.7163164800       18.2214724000
  H        20.2724940400       19.3433166200       20.2076067900
  H        19.4179798100       20.4075282100       19.4602281300
  H        16.7769524000       18.9787194700       18.6015853100
  H        15.4213002900       19.7039133500       18.8837005700
  H        17.2564170500       20.6217903000       20.0585750100
  H        17.7849365900       21.9940389800       19.4913344300
  H        19.1676930700       19.8104617200       14.9786167700
  H        20.1352599700       20.4647236900       16.0239158300
  H        18.0238873400       21.8699879800       17.0171529600
  H        17.9800848500       23.4137276000       17.0474805000
  H        18.4276891400       18.2130882900       18.2387226600
  O        17.8115725100       18.3477713000       17.4692089900
  O        21.1300569200       21.5406538400       17.7185188000
  O        20.1089675400       19.6282475600       19.2468089700
  O        16.2921773000       19.5669135900       19.3354172900
  O        17.9863451500       21.2781798600       20.1776124400
  O        19.1508445700       20.3331255500       15.7835919400
  O        17.8662948500       22.6364727900       17.5935463100
      21
 i =        1, time =        0.000, E =      -120.5147149030
  H        18.0855529200       18.8333177100       16.7711574300
  H        20.8819290500       21.8326953700       17.2070949900
  H        21.2917462300       20.7245715000       18.1691397500
  H        20.5461234500       19.0540055000       19.8970213800
  H        19.5103521400       20.2215181100       19.6613666500
  H        16.4464902000       19.5335572000       18.3792216700
  H        15.3368328100       19.7531560400       19.5271762500
  H        17.3412170500       20.7212758600       19.8763929500
  H        18.3026729000       21.8448262300       19.5614199800
  H        19.8950113600       19.9720727300       15.5500606800
  H        19.6800782000       19.7231047400       17.0865224700
  H        18.1798650900       21.9577404600       17.1920957000
  H        16.9079842300       22.1790624500       18.1124020400
  H        17.3060223200       17.4840970100       16.9341545500
  O        17.2582392700       18.4375032700       17.1871298600
  O        21.6653905300       21.3845804400       17.5586577500
  O        20.2065423900       19.6146619900       19.2049675500
  O        15.9958415900       20.2307326300       18.9882198100