      12
 i =        1, time =        0.000, E =       -68.8495649831
  H        19.4381572300       23.7913090200       19.5679560700
  H        19.6494602600       20.7967873600       20.3514714100
  H        19.2360519800       19.2994478900       19.8892106600
  H        19.8148102200       17.0436471400       18.5282494400
  H        19.3421653200       18.0876405700       17.5534252200
  H        16.3786537500       22.0357421100       21.0281692900
  H        17.3790313000       20.9105074700       20.8399838200
  H        18.3211541200       22.7174544700       19.8117256900
  O        19.0876600300       23.1910806000       20.2139042400
  O        19.1505085700       19.9589483400       20.6513790600
  O        19.8082287600       17.9964353900       18.4047539300
  O        16.9004383400       21.6197609800       20.3179178700
      12
 i =        1, time =        0.000, E =       -68.8463405972
  H        18.9287761400       23.2826989200       19.1071059600
  H        20.2088122400       20.6133988700       20.5707958200
  H        19.5094417000       19.2767658100       20.0199948200
  H        18.6245729100       17.7445829200       18.1531744300
  H        20.1008365800       17.8356055900       18.2208530700
  H        16.6839905000       21.2708910200       21.2025496800
  H        17.7234126800       20.7458622500       20.1275505500
  H        18.4715932000       22.7317151500       20.4660120400
  O        19.2719590900       23.2228767200       20.0432453500
  O        19.3933735600       20.0455554600       20.6345803200
  O        19.3426039500       18.2724416200       18.6170804800
  O        16.8953034100       21.2997601400       20.2742835500
      12
 i =        1, time =        0.000, E =       -68.8519340054
  H        19.4631697600       24.1134694800       19.9714753100
  H        19.4716443500       20.8450886000       20.4779108400
  H        19.3403147200       19.4221328800       20.0625631700
  H        20.3039699700       17.9882581300       18.0102424400
  H        19.3397860000       17.1628117500       18.7509155700
  H        16.2422186700       21.2948145000       20.8092865600
  H        17.5459428300       20.7521437700       20.2086398000
  H        18.5137201400       22.8639158200       20.0702301900
  O        19.4786117100       23.1297919000       20.0990956100
  O        18.9365179700       20.0279053000       20.6959527200
  O        19.5646783100       18.0991377900       18.6066470200
  O        16.9253643300       21.5245050400       20.1364190800
      12
 i =        1, time =        0.000, E =       -68.8537931460
  H        19.8769772600       23.3631523400       19.8123673600
  H        19.6289094100       20.8324832600       20.5265059800
  H        19.1878149400       19.3857316600       20.2853869000
  H        18.5284035700       18.3187168700       18.4334315500
  H        20.0097375100       18.3630848800       17.9696245400
  H        16.4025059000       21.5793752600       19.6143082400
  H        17.4710688900       21.0564004000       20.7259409500
  H        18.6374261000       22.5446554500       19.8278061700
  O        19.6072882200       22.4991639300       19.5586110000
  O        19.0145812600       20.1783313600       20.8601821900
  O        19.4175728700       18.1863594500       18.7887879400
  O        16.8958409800       21.8544205300       20.4039891000
      12
 i =        1, time =        0.000, E =       -68.8512578922
  H        19.6565785200       23.4720715100       20.9361688000
  H        19.7493998600       20.6778013100       20.4223734000
  H        19.2700238800       19.2837827000       20.0918636100
  H        18.7559557000       18.8236487200       17.8815060900
  H        19.9125914700       17.9181188600       17.7881315600
  H        16.4909851100       21.6075377300       20.9558572500
  H        17.7055866200       20.9261318200       20.3200116500
  H        18.4406641000       22.7845445300       20.1907588800
  O        19.4811122200       22.9330901100       20.0970284800
  O        19.1623628800       19.9929905700       20.8305701900
  O        19.2006111100       18.1128463000       18.4432313100
  O        17.0761428600       21.6761957600       20.1530829000
      12
 i =        1, time =        0.000, E =       -68.8430301863
  H        19.2645169700       23.5175446200       19.0485547100
  H        19.6513382600       20.3873930000       20.7364165300
  H        19.0210669100       19.1730077500       19.9394855500
  H        20.1080435500       18.5654158300       18.1674328400
  H        19.4798581700       17.3292875400       18.4517314200
  H        16.5847533400       21.4156109500       21.0354079500
  H        17.8811234600       20.6689331500       20.4155860800
  H        18.4702567900       22.8660403800       20.2324460700
  O        19.2570325900       23.4214520600       20.0279853000
  O        19.0793577200       19.6073962100       20.8818523300
  O        19.1806823300       18.2450081400       18.2504945500
  O        17.3729666900       21.5402079700       20.3988383400
      12
 i =        1, time =        0.000, E =       -68.8452831592
  H        19.4047285500       23.7914300900       19.3781580200
  H        19.6996462100       20.5745150600       20.3270000100
  H        19.5376917900       19.0727653200       20.0181823500
  H        18.0939806800       18.4254944000       18.3713241500
  H        19.0402631300       17.1038300800       18.3747988900
  H        16.3648462900       21.1112505300       19.9780758100
  H        17.6589864600       20.6974290200       20.7443815000
  H        18.5768169300       22.9646404000       20.2730121600
  O        19.3496092200       23.5672889800       20.2869277300
  O        19.3583259700       19.7522406200       20.7073167500
  O        19.0232795900       18.0713278900       18.4460908200
  O        17.2901245900       21.4346659300       20.1542515100
      12
 i =        1, time =        0.000, E =       -68.8484441950
  H        19.7985455700       23.1829031900       19.3807419000
  H        19.6880842900       20.9406036200       20.4916636800
  H        19.5570529200       19.4997317800       19.9577381500
  H        18.2029419800       17.9569526400       18.2530347200
  H        19.5568883900       17.3673484800       18.5514841000
  H        16.0243507800       21.5777444700       20.0432659400
  H        17.4147188600       20.7608601300       20.6661881800
  H        18.5433965600       22.6887282200       20.0428396200
  O        19.4497861400       23.0056932600       20.2373486200
  O        19.4030119100       20.0277322000       20.7723991300
  O        19.1489089600       18.2258559500       18.3933527400
  O        16.9938625400       21.5515294800       20.1963991500
      12
 i =        1, time =        0.000, E =       -68.8455817653
  H        19.3184991200       24.1105040200       20.5556628400
  H        19.6744657100       20.9796428100       20.0695562500
  H        19.2902349100       19.3868448000       19.8587472000
  H        18.6760182400       17.3402095200       18.1054768200
  H        20.0827886300       17.2062630000       18.7909628600
  H        16.2967505900       22.0093470300       20.8667076900
  H        17.2506318000       20.8269966700       20.6439257400
  H        18.3690864700       22.9593685400       19.9974867100
  O        19.3150244500       23.1526200000       20.1920695400
  O        19.4210435800       20.1434402400       20.5073116600
  O        19.3713815700       17.8590792600       18.6245255900
  O        16.8772520200       21.6024769200       20.1809880400
      12
 i =        1, time =        0.000, E =       -68.8432958846
  H        19.1378785100       23.9957111500       19.8629383200
  H        19.8367636300       20.5236273100       20.5213952200
  H        19.4430914400       19.3304981300       19.5792605100
  H        18.8358162900       18.5264417900       17.5240970100
  H        18.9690245000       17.3705050500       18.4718666300
  H        16.0219149700       21.6292997100       20.3325661700
  H        17.2851450100       20.6908478300       20.2694648800
  H        18.4836063200       22.7369534400       20.3323046700
  O        19.3987439300       23.2255639700       20.3484397600
  O        19.2353770500       19.7644711800       20.4472550700
  O        19.3918111600       18.1907178200       18.2469599600
  O        17.0183229900       21.5778269100       20.5879097500
      12
 i =        1, time =        0.000, E =       -68.8491307829
  H        19.1903775300       23.9145247100       20.6650364800
  H        19.8133745400       20.8284030900       20.2118831600
  H        19.5765583200       19.2272839300       20.2609320300
  H        18.8433390500       18.7573386000       18.2590112000
  H        18.7156215000       17.2965312800       18.2237662100
  H        16.5628437600       21.6939516400       20.8190748500
  H        17.6456442700       20.9247229900       20.1937279600
  H        18.6080356700       22.8133613000       19.9534504600
  O        19.4811675000       23.0570554100       20.2943518800
  O        19.2929102300       20.1262623100       20.6498407700
  O        19.2775583200       17.9714943800       18.6387090200
  O        16.9332344700       21.5626745200       19.9409979100
      12
 i =        1, time =        0.000, E =       -68.8449066401
  H        19.0649734500       23.0217963800       19.4741239400
  H        19.7452099100       20.7619746800       20.7189492600
  H        19.3759353700       19.5827441500       19.7351739000
  H        19.3955159500       17.1733689300       18.4897951800
  H        20.6939957200       17.8858921000       18.7647391600
  H        15.9324730800       20.7136957000       20.4788769700
  H        17.4380308100       20.9607268200       20.2910083500
  H        18.6202718400       23.1495133700       20.9343872000
  O        19.4269522300       23.3148117400       20.3809709300
  O        19.0513064100       20.0339423300       20.5500201000
  O        19.8498744500       18.0437372800       18.3770551600
  O        16.5741637400       21.4640075100       20.1969413900
      12
 i =        1, time =        0.000, E =       -68.8457913404
  H        19.4197834200       23.5628724600       19.0326462200
  H        19.8134867900       20.8446965100       20.6890635900
  H        19.4217205500       19.3405980000       20.4128095300
  H        18.6206015700       18.0964573800       18.2641791300
  H        20.0330798000       17.6270707800       18.3814924600
  H        16.2945104900       21.3584811700       20.9879256400
  H        17.6783865200       20.7896970900       20.5437492400
  H        18.7137005100       22.4289578400       19.7090967600
  O        19.4849743900       23.0671926400       19.8851022600
  O        19.1383480000       20.1177879900       20.9636512800
  O        19.4650317900       18.3978185700       18.4985831300
  O        16.8310253300       21.2233520000       20.2122180800
      12
 i =        1, time =        0.000, E =       -68.8481683216
  H        19.5806435200       23.8739061000       19.9401143300
  H        19.3826520100       21.0652734600       20.4514218700
  H        19.4557483500       19.4494768600       20.0633914900
  H        18.8494773300       17.3749953200       18.1462129500
  H        20.3413186300       17.3414830900       18.4444688600
  H        16.1307787300       21.4273985600       20.6799949800
  H        17.4702802300       20.9068448400       20.2293465300
  H        18.3527413100       22.8562788900       20.0656404600
  O        19.3790703900       22.9457616000       20.2059658300
  O        19.0675003300       20.1491822000       20.6851751300
  O        19.5683262800       17.9750985900       18.3824147100
  O        16.9316768700       21.7205578100       20.2860224600
      12
 i =        1, time =        0.000, E =       -68.8493786425
  H        20.2597317900       23.0939543100       19.2559816900
  H        19.5520876100       20.8806554500       20.6151851000
  H        19.3054161900       19.4759598200       20.0218399700
  H        18.8915759600       19.0818961300       17.9010011000
  H        18.7371417100       17.6470889600       18.3755674000
  H        16.3526858900       21.6869725700       21.0950254800
  H        17.4792623600       20.6977386700       20.3487768700
  H        18.8912500400       23.0246369000       19.9506897100
  O        19.8143085400       22.7967194800       20.0817805700
  O        18.9980275300       20.0502633600       20.7782353800
  O        19.3595100200       18.3956211900       18.5103850400
  O        16.7806809300       21.4665166100       20.2179399600
      12
 i =        1, time =        0.000, E =       -68.8424925051
  H        19.8827782300       22.9177368000       21.2945918000
  H        19.3696893100       20.9549027300       20.4673406500
  H        19.4155355300       19.4513217200       19.8414324600
  H        18.6696144600       18.0428229700       18.0328571000
  H        20.0406010500       18.2120398900       17.2851705800
  H        16.7206159700       21.5780466600       21.3895357000
  H        16.8536295400       20.7850102600       20.0923306200
  H        18.4777428900       22.8522129100       20.5487161100
  O        19.4547137400       22.7109059900       20.4169964700
  O        19.0718798700       19.9923250200       20.5134478100
  O        19.6237094100       18.3373398300       18.1485787000
  O        16.8046776500       21.7186258800       20.4218743300
      12
 i =        1, time =        0.000, E =       -68.8545158552
  H        19.5743711400       23.5948863300       19.5533232900
  H        19.3866350900       20.9947794200       20.5778786700
  H        19.4273887900       19.6152860900       19.8908675300
  H        18.9076021700       18.1744591500       17.9803078300
  H        19.9289238100       17.5721034100       18.9834484800
  H        16.2793725700       21.4548488500       20.8218786000
  H        17.6010420300       20.6629607500       20.2917563800
  H        18.4148156800       22.7795118700       20.0331466100
  O        19.3738615000       22.8372126600       20.1285091500
  O        19.1175818200       20.0476385300       20.6988413300
  O        19.5408528100       18.4290576300       18.6698682000
  O        16.9170177100       21.4418389400       20.0553020100
      12
 i =        1, time =        0.000, E =       -68.8509255873
  H        18.5325445000       24.0105335600       21.2335719700
  H        19.8867606100       20.6993104500       20.1389465500
  H        19.4285148300       19.3336909500       19.5063544700
  H        18.8358589500       17.3297183000       18.5596352600
  H        20.3258531900       17.1491828400       18.7629330300
  H        16.6010012900       21.6372985700       21.1989259600
  H        17.5095756800       20.7027447600       20.3911049100
  H        18.2672786300       22.8781679700       20.2894551600
  O        19.0186171000       23.4890095700       20.5722979900
  O        19.1816373900       20.0035202000       20.1889534000
  O        19.7185142300       17.7629689900       18.3475080600
  O        17.0389097400       21.5700692300       20.3210094100
      12
 i =        1, time =        0.000, E =       -68.8484535567
  H        19.8749747300       23.8683156400       19.7220252500
  H        19.8076908700       21.0258649000       20.5215119400
  H        19.5303355100       19.5034056800       20.2630177900
  H        18.2612387200       17.8696155300       19.0353681900
  H        19.2305382500       16.8708097000       18.3665522500
  H        16.3135838100       21.5379126200       20.6769533600
  H        17.6793615600       20.9230698100       20.1655272700
  H        18.7072949600       22.8895986900       19.9104326800
  O        19.5673496100       23.1007919000       20.2507267800
  O        19.3141172100       20.2727126400       20.8881499800
  O        19.1060472200       17.8435121300       18.4752898500
  O        16.9690536100       21.5614278400       19.9050387700
      12
 i =        1, time =        0.000, E =       -68.8490879124
  H        19.0052540900       23.9732429800       20.0369906100
  H        19.9610822500       20.6931236700       20.5758134500
  H        19.3176475300       19.2985961500       20.0617761500
  H        19.9374610400       17.3630001300       18.3066015300
  H        18.7210836000       18.0989616200       17.7242804000
  H        16.3798631100       21.4079689100       20.9934154100
  H        17.5843082800       20.6732750000       20.2917354400
  H        18.4653075100       22.4766761600       20.3509684900
  O        19.2900563100       23.0888283100       20.2854175700
  O        19.1939429000       20.0442446900       20.7011877600
  O        19.5262565200       18.2439465000       18.3616239300
  O        16.9483917400       21.4331631200       20.1911252300
      12
 i =        1, time =        0.000, E =       -68.8542063274
  H        19.2483489600       23.2933344000       20.0840679700
  H        19.4612319800       20.9642854100       20.3236000200
  H        19.4885772500       19.7684699500       19.3464893800
  H        20.1683503900       18.5349793700       17.1753151800
  H        19.5477107900       17.5791051300       18.2116773600
  H        16.4693335600       21.3467055600       21.2871508100
  H        17.5785798800       20.8649477800       20.2667411700
  H        18.2716611200       22.5803248000       21.0919584300
  O        19.2542402600       22.7542060100       20.8892500400
  O        19.1428534400       20.0125428300       20.2326236400
  O        19.7254918000       18.5050218000       18.0552617500
  O        16.7817660400       21.4787278600       20.3971598600
      12
 i =        1, time =        0.000, E =       -68.8529956268
  H        19.5636358200       23.2390834000       19.2702814500
  H        19.5176527400       20.6125627500       20.9618516600
  H        19.4946648400       19.3605332000       19.9686317100
  H        19.8557677000       18.2759130000       17.3500825300
  H        19.1673105400       17.4823513800       18.5560644100
  H        16.1458822800       21.5389473100       20.9714599500
  H        17.5132203800       20.7915028300       20.4912430600
  H        18.5505725200       22.8283460400       20.3498658600
  O        19.4739650600       23.1527655400       20.2594277800
  O        19.0064474600       19.8136711800       20.7334478400
  O        19.6032898000       18.3300799700       18.2998689600
  O        16.8474313800       21.5045684600       20.2732039400
      12
 i =        1, time =        0.000, E =       -68.8486289031
  H        19.8956102600       22.9817400800       19.3129060200
  H        19.4205352000       20.7510390600       20.5359963700
  H        19.1263936000       19.3561586700       19.9915712600
  H        18.2722483200       18.4631203700       18.2982550600
  H        19.5686219300       17.6036035100       18.2081236200
  H        16.3292873100       21.7569738400       20.9237489200
  H        17.4085145200       20.6907616300       20.8914815900
  H        18.6709170400       22.6322916000       20.1361909400
  O        19.6150558500       22.9135589300       20.2900521500
  O        19.0808037000       19.8841535100       20.7998820500
  O        19.2694104200       18.5517765300       18.1496669600
  O        17.0362125800       21.4448894800       20.3024818900
      12
 i =        1, time =        0.000, E =       -68.8512483154
  H        19.2554916000       24.1435453900       19.7311984700
  H        19.3640460100       20.7839256400       20.4456214700
  H        19.4550298400       19.3427439900       19.9490293400
  H        19.0055113200       17.5926440500       17.9645458400
  H        20.5169370000       17.6673171500       17.9943704700
  H        16.5929003400       21.9118342200       21.5382551200
  H        17.4804868600       20.9565265500       20.6451614400
  H        18.3128812400       22.8854919400       20.0085163700
  O        19.2349738100       23.1631591600       19.7722710700
  O        19.0924651800       19.8714338800       20.7180686800
  O        19.7317486600       17.9368654000       18.5053132900
  O        16.8609469800       21.7568704500       20.5477893400
      12
 i =        1, time =        0.000, E =       -68.8493150097
  H        19.2778565300       23.9343146800       19.8613382300
  H        20.0942573200       20.8313032400       20.5691406800
  H        19.4892705700       19.5264415300       19.7917724100
  H        18.1685634700       18.6755617100       18.1629774000
  H        19.5429373400       18.4545534200       17.4346353800
  H        16.8127834700       21.3969408000       21.2602105600
  H        17.9750823300       20.8175314400       20.4232232100
  H        18.3041417300       22.6842719200       19.9793492100
  O        19.1706525000       23.0551162400       20.2956257700
  O        19.5182048700       19.9617453700       20.6955789300
  O        19.0981202600       18.2602870900       18.2910692400
  O        17.1532169200       21.3858520400       20.3111968100
      12
 i =        1, time =        0.000, E =       -68.8415421763
  H        19.3586931200       23.5281375500       19.3944035600
  H        20.0352068700       20.9431036900       20.7896964000
  H        19.6019603300       19.5507738800       19.9319005200
  H        18.4193249300       18.1505584500       18.1446045400
  H        19.3125615600       16.9928217300       18.4203460900
  H        15.9381000900       21.9209646600       20.5881936100
  H        17.3470225400       21.0166595400       20.6647236400
  H        18.4587100200       22.6530859800       20.1597887800
  O        19.4025159100       22.8906807000       20.1902309600
  O        19.4119062500       20.1629327400       20.7133549800
  O        19.3495297600       17.9571047600       18.4524577100
  O        16.8514260700       21.7508719400       20.1989310500
      12
 i =        1, time =        0.000, E =       -68.8430028501
  H        19.9868196000       23.6978020500       19.6345216200
  H        19.8108847200       20.0587085200       20.3795674100
  H        18.6249644400       19.2135538200       20.2142516500
  H        18.4381493900       17.6879925100       17.7850028600
  H        19.5315897500       18.8372422500       18.0574599000
  H        16.4981578700       22.2648450200       20.8556827900
  H        17.6062949300       21.0900709300       20.6773401500
  H        18.9135849200       22.7004479200       20.0605711600
  O        19.9156092900       22.8753582700       20.1219446400
  O        18.9234173200       19.9152747700       20.8576233100
  O        19.0435575500       18.0986522700       18.4054221400
  O        17.0736415600       21.8222445800       20.1970296600
      12
 i =        1, time =        0.000, E =       -68.8407298633
  H        18.8628396500       23.9953422200       20.0300072100
  H        19.6721315100       20.8653521500       19.9779146100
  H        19.4647389000       19.2984684900       19.9903972700
  H        19.4573102500       18.8459185900       17.7214367600
  H        20.7047856400       18.0573437700       18.1126307700
  H        16.0002749300       21.0401810100       21.1382546300
  H        17.4381625500       20.6858981600       20.4925237100
  H        18.5768277400       22.8931451100       21.0075973700
  O        19.2695024100       23.1336986800       20.2610864000
  O        19.2550195100       20.0859440700       20.5024083400
  O        19.7337873200       18.1817320700       18.3914754200
  O        16.6496160600       21.3019024100       20.3762454400
      12
 i =        1, time =        0.000, E =       -68.8524658385
  H        19.7820438700       23.4662708400       20.2574338500
  H        19.7338888000       20.7421187200       20.6477506700
  H        19.3526476900       19.3549698600       19.9614225300
  H        18.5605909600       18.6986982000       17.8103355000
  H        19.7081128500       17.6965806700       17.9223064800
  H        16.7800256300       22.1714058400       21.2683686500
  H        17.3471126000       20.8505482000       20.5484024000
  H        18.6288274800       22.5534915000       20.1382544300
  O        19.5628993900       22.5226301200       20.1411264500
  O        19.1163649100       19.9378852800       20.7056811800
  O        19.4062304000       18.5541778900       18.2811911800
  O        16.8403124600       21.6978811500       20.3979551800
      12
 i =        1, time =        0.000, E =       -68.8535862133
  H        19.6790588900       23.2282509500       21.1874085200
  H        19.4517980100       20.9860016900       20.5958929000
  H        19.4844815100       19.5190647100       19.9998595200
  H        18.5988107700       17.4921252800       18.4957639600
  H        20.0106019100       17.7799825900       17.9288751200
  H        16.5945952900       21.6789907800       20.9448262100
  H        17.4977308400       20.7938007100       20.0017993100
  H        18.6176208000       22.7085837200       20.2292932100
  O        19.5744184800       22.8052057600       20.3343189200
  O        19.1186898200       20.1060637100       20.7445489900
  O        19.2285982900       18.2114687800       18.3393393900
  O        17.0014891700       21.6747203600       20.0554884500
      12
 i =        1, time =        0.000, E =       -68.8437343869
  H        19.3328048600       23.5360806500       20.0161568600
  H        19.7298385400       20.4419076700       20.4500643100
  H        19.0541364000       19.2179248700       19.7948186700
  H        19.6822534900       17.5836123700       18.5788066400
  H        20.2776813300       18.6549956700       17.5163244800
  H        16.2240084600       21.8546517600       19.6734684000
  H        17.4666858000       20.9721603000       20.1309221200
  H        18.6616310000       22.6619018200       21.0370434800
  O        19.5714521300       22.7625846600       20.5967594200
  O        18.9354115100       19.8415299300       20.5232657800
  O        19.5248665600       18.3959817000       18.1265536200
  O        16.8603200700       21.7509640300       20.3648507100
      12
 i =        1, time =        0.000, E =       -68.8504786400
  H        19.8553163400       23.1572755700       19.5327070500
  H        19.6243266900       21.0088284200       20.7399093600
  H        19.6151973200       19.8595937300       19.7280782900
  H        18.3272150300       18.2350374000       18.8729624100
  H        19.5249111700       17.4371623400       18.5237040800
  H        16.2996445700       21.3205247300       19.7682927600
  H        17.6876421100       20.9900461900       20.4205065900
  H        18.5401835700       22.6744098900       20.2505128400
  O        19.5970967500       22.7074977200       20.3448829500
  O        19.2796810700       20.0750852300       20.6285339300
  O        19.0535355500       18.2292405600       18.2554321800
  O        17.0218806500       21.7543802400       20.3423166400
      12
 i =        1, time =        0.000, E =       -68.8512222061
  H        19.1060707400       23.7328531400       20.9378431800
  H        19.7816652800       21.2416892900       20.6902444200
  H        19.8943963600       19.8326954100       19.9495669300
  H        18.3681079700       17.9322262000       18.3287901300
  H        19.6101164200       17.4622573700       18.8860832000
  H        16.3589470300       21.3275916700       21.0974036500
  H        17.6947610900       20.8598239100       20.4484749700
  H        18.2438865500       22.7638844200       20.1230746000
  O        19.1748926500       23.0339840500       20.2576677200
  O        19.5917322100       20.2793695600       20.7259796300
  O        19.2851481300       17.9674184000       18.1140193800
  O        16.9266612600       21.4558108600       20.3081257400
      12
 i =        1, time =        0.000, E =       -68.8509556334
  H        19.0957665700       23.8438450400       19.8804273600
  H        19.6867492900       20.9662718200       20.5663218700
  H        19.6147838100       19.4882036100       19.8439292100
  H        19.7124624200       18.5628470000       17.5530271200
  H        18.5960214700       18.0279080800       18.5356225800
  H        15.9155682300       21.2231293700       20.3150792200
  H        17.5035824600       20.6880466100       20.4605367700
  H        18.3239775800       22.5479151700       20.1161004300
  O        19.2264271500       22.9150768900       20.1369695200
  O        19.3768054800       20.0065774600       20.6774237800
  O        19.5143993600       18.3290762800       18.4896394900
  O        16.8991741400       21.4735573200       20.3027697400
      12
 i =        1, time =        0.000, E =       -68.8465317351
  H        19.7929702200       23.4139366500       20.6151293500
  H        19.6005029700       20.9341812500       20.6740154300
  H        19.5266659400       19.6185180300       19.8602050800
  H        18.3333615400       18.5723927800       18.3996952200
  H        19.1887612200       17.9339583100       19.3679477100
  H        16.6401098100       21.2674458500       21.0524673000
  H        17.6582680100       20.7678736500       20.0771696000
  H        18.4022861900       22.7286935800       20.3060870800
  O        19.4048001900       22.6919158100       20.0357571300
  O        19.2268043100       20.0161526600       20.7009062800
  O        19.2998441700       18.4403762500       18.5061201400
  O        17.0416318400       21.5828471700       20.1698614900
      12
 i =        1, time =        0.000, E =       -68.8466114498
  H        19.1196534900       23.6384646000       21.2426079400
  H        19.8347684700       20.7268111800       20.5411738700