      54
 i =        1, time =        0.000, E =      -309.9540418842
  H        17.9744313600       17.1913792400       16.9758163200
  H        20.4011229600       19.5458762200       18.5581729000
  H        21.4641910900       19.9317450700       17.3555023300
  H        18.4180629000       16.8152684600       20.9918028200
  H        17.1978816100       17.8888364300       20.6163037900
  H        19.9546566400       22.6907249800       20.2085198300
  H        20.1660426300       23.7912988800       19.2535434400
  H        16.3674177800       18.1112327200       18.8396119000
  H        16.4212166100       19.4354128300       19.7389835000
  H        22.4751647800       25.0460826700       19.3545137500
  H        22.2204215800       23.5196987800       19.1075122800
  H        21.1946244900       20.6912666500       22.4763903800
  H        20.3324681800       20.3678815300       21.0207309900
  H        18.8680724300       20.3831887200       16.4937998200
  H        17.6020815300       21.2521391500       16.5208916000
  H        24.5786494000       18.2021574500       20.0782309600
  H        23.2578616700       17.4581497200       19.9584582600
  H        18.6314945400       18.5352655800       22.8588781700
  H        18.3946982700       18.8566141900       24.3205924400
  H        17.0818741900       23.5785821800       17.6104953500
  H        18.2905361000       22.9784440600       18.3517109600
  H        23.5223443400       19.3996075300       18.3531569400
  H        24.2142940000       20.2913186300       17.2172856100
  H        18.8551080100       20.1618012900       19.5766978500
  H        19.0700019000       18.8178487400       20.2711940000
  H        21.8679062600       15.8641150100       20.8243455000
  H        21.3839503700       16.6660714100       19.5092005300
  H        19.2291096100       21.9544249700       22.1768481900
  H        18.2648034400       20.9036053500       22.8940937800
  H        23.1938248500       21.3923525600       19.0499857600
  H        22.5455381700       21.7521145800       20.4425501400
  H        20.0921207500       16.6389605100       16.6427089800
  H        20.5398905400       18.0495369900       17.4338191700
  H        17.3140709900       21.2378313200       20.8579997600
  H        16.9766799500       21.7492572800       19.2964887200
  H        17.4494268800       18.6261743100       16.7313361400
  O        17.1653069300       17.7617642700       17.0404777400
  O        20.6062967400       19.5399578300       17.5094587500
  O        18.1631207800       17.7471613500       21.1871481400
  O        19.4785657200       23.1437391200       19.4557596800
  O        16.2159429900       18.4243821500       19.7749965200
  O        21.7823167100       24.4409102800       18.9953961800
  O        20.8705289600       21.0619164500       21.5997610300
  O        17.9345915400       20.3407897600       16.2183101300
  O        23.5811103100       18.3626236100       20.1425921300
  O        18.8745764400       19.2038690200       23.5741768200
  O        17.4378021000       22.7284405200       17.8840483500
  O        23.4397288700       20.2511043400       17.8118388300
  O        19.5838928100       19.6627450700       20.0107084600
  O        22.1676872700       16.1511865400       19.9115910600
  O        18.2279446800       21.7374004800       22.3387712300
  O        23.1172765500       22.1441484000       19.7427300200
  O        19.9844019400       17.1645891700       17.4602973400
  O        17.0721261400       21.0082015500       19.8976791800
      54
 i =        1, time =        0.000, E =      -309.9734555919
  H        18.3482652700       17.5592419000       17.0786833000
  H        20.1959799900       19.8208244500       18.2798062500
  H        21.4451516100       20.0201039400       17.4514191900
  H        18.1923427600       16.4649330000       21.6870167600
  H        17.3521146400       17.5144216400       20.6656365400
  H        18.9596764700       24.0278553000       20.5106850300
  H        20.0796481900       23.9578012200       19.3585941300
  H        16.4496077000       17.9750471900       18.6529008600
  H        16.2347401500       19.0205042500       19.7253546400
  H        21.8840925200       25.3949573200       18.8933389500
  H        22.3632204500       23.8668774100       19.2725495800
  H        20.9612796800       20.4593385600       22.2719253800
  H        20.8545872900       20.5150267800       20.7495341400
  H        19.0830599000       20.1643310600       16.6489417400
  H        17.8700886900       21.1026473900       17.0718260600
  H        22.8579448400       19.2429401600       20.7892964000
  H        22.9658772500       17.7216407300       20.3086032200
  H        18.7680943700       18.5615067300       22.7078602900
  H        19.1713649700       18.9684521800       24.1911959900
  H        16.9085445200       23.0802644200       17.3757471100
  H        18.0782455600       23.2186584600       18.4944244300
  H        23.1692794100       19.4579829300       18.9273769200
  H        23.6882720900       20.1273928400       17.6041657300
  H        18.6339992400       20.1130525800       19.7534758300
  H        19.3125307000       18.7973226700       20.3405395900
  H        22.6174310400       15.5796675100       19.3245898600
  H        21.4452558700       16.6178874300       19.1103885100
  H        18.9654436600       21.9141199700       21.5437074400
  H        18.3137832600       20.9761563800       22.6010688200
  H        23.0944862200       21.7199802400       19.3553145200
  H        22.4544232900       21.9061368200       20.6667958000
  H        20.6017747600       17.0323598100       16.6848505000
  H        20.4271219100       18.1438043500       17.6868381400
  H        17.2005111900       21.1880583900       20.6338462000
  H        16.9598690200       21.4689282700       19.1025833900
  H        17.5530965300       18.9542258800       16.8025228000
  O        17.4276474000       17.9315677600       17.1153662000
  O        20.5153170800       19.6692558000       17.3288035000
  O        18.1743449600       17.3906944100       21.3076891600
  O        19.2330435200       23.6574774800       19.6108849600
  O        16.1032792900       18.0171039000       19.6288196900
  O        21.6698495000       24.4261879200       18.7430055600
  O        21.2564554200       20.9999318900       21.5341278400
  O        18.1310241500       20.3482531800       16.4240901300
  O        23.4382628400       18.6254183400       20.3082703600
  O        19.2948267000       19.1954164600       23.2569564200
  O        17.4332347800       22.5444620900       18.0097296200
  O        22.9396454100       20.1499686100       18.2132999400
  O        19.5827841900       19.6020580700       19.8214602100
  O        22.0205280600       16.1888420900       19.8120505100
  O        18.0664887300       21.6599010400       21.9609905100
  O        23.0397333900       22.4019660900       20.0738657300
  O        20.5436846000       17.1501571400       17.6201215900
  O        16.9811793600       20.7349306900       19.7638287100
      54
 i =        1, time =        0.000, E =      -309.9716123711
  H        18.4244489900       17.4963453200       17.1911577200
  H        20.2643947800       19.7893241000       18.4284063100
  H        21.6596288800       20.2176340800       17.6877151900
  H        17.6150743000       16.3595810400       21.7701597300
  H        17.4408847700       17.4214942300       20.6700710800
  H        18.8699792000       23.0522682500       20.3019728400
  H        19.9301215100       23.7554271900       19.4074843200
  H        16.5287805700       17.7702339100       18.8132877000
  H        16.2177618300       19.1646326400       19.5539699700
  H        21.6173203800       25.1245984900       19.5697747000
  H        22.0985072900       23.6523253600       19.5767262500
  H        20.5962452500       20.3515655100       22.5913380200
  H        20.5701408000       20.4734338800       21.0449912100
  H        18.9219327800       20.6498451100       16.0493609900
  H        17.4909300000       21.0957025700       16.4843971600
  H        22.7681978100       19.2682291200       21.1583513000
  H        22.7912746500       17.9719739600       20.2006150400
  H        18.6519287500       18.6406419000       22.7296948900
  H        19.0553536900       18.8109051900       24.2194690600
  H        16.4546652000       23.0746318000       17.4972621500
  H        17.8421174700       23.1297001600       18.1730027000
  H        23.3478483800       19.4769006000       18.9672150100
  H        24.2092003600       19.9825604500       17.7711988700
  H        18.6746339800       20.0071380800       19.9575762800
  H        19.2714762200       18.5497373400       20.1313176600
  H        21.4651411300       16.1731593100       20.2907885900
  H        21.5186376400       16.8233711000       18.8993472200
  H        19.3840013600       21.7689059600       21.9061673600
  H        18.3408373000       21.2167662200       22.7396399400
  H        23.2005272900       21.5955108400       19.3203679900
  H        22.6998898300       21.8073047900       20.7159106600
  H        20.8535298800       16.8824954600       16.6399309900
  H        20.9240515900       18.4283328700       17.3750247000
  H        17.4133603500       21.1396427200       20.5278341500
  H        17.0531956800       21.4387216600       18.9285121200
  H        17.5560553600       18.7301169900       16.7543743200
  O        17.4686867300       17.7287820700       17.0251101900
  O        20.6805883200       19.9078446800       17.5380206800
  O        18.1506853100       16.9975288000       21.2527455800
  O        19.0555653400       23.2870599100       19.3981794200
  O        16.2065505100       18.1687735200       19.6667940200
  O        21.3624750300       24.2485681700       19.3009880200
  O        20.9611204500       20.9571146100       21.8428864900
  O        17.9847020300       20.3737708900       15.9774940400
  O        23.2366546600       18.8923147400       20.4218420200
  O        19.1695329400       19.2682418200       23.3153171200
  O        17.1862944600       22.5294785100       17.7422340900
  O        23.3831883100       20.1472616200       18.2284187900
  O        19.5316836500       19.5320961300       19.9327258300
  O        22.1475573900       16.5083102700       19.6189317900
  O        18.3609751800       21.8735906300       22.0176227400
  O        23.0954330900       22.3038134700       19.9856455200
  O        20.8575141700       17.3431005100       17.4998150200
  O        17.1216938400       20.7118353700       19.6601588600
      54
 i =        1, time =        0.000, E =      -309.9694737665
  H        17.9640405900       17.6901309300       17.5942271400
  H        20.5481659700       19.4819329900       18.0383825600
  H        21.8709138200       19.8616669700       17.4631824300
  H        18.2742146300       16.6917796600       21.0672973500
  H        17.2385462900       17.7980016300       20.8194724600
  H        18.9410717100       23.6501852600       20.3843447900
  H        20.2319548700       23.8619543700       19.4102748600
  H        16.2176728400       17.8411065600       18.9924259200
  H        15.9175009600       19.0489214800       19.9935903700
  H        21.8104466800       25.5529673700       19.2569066300
  H        22.3518554000       24.0471586400       19.2420396400
  H        20.9448001800       20.3852242700       22.3230033500
  H        20.5252609300       20.3727672900       20.8087432000
  H        18.8572336000       20.4329251600       16.4666563300
  H        17.6284759300       21.1659948700       16.9407139100
  H        22.8421892200       19.2723928300       20.9168333200
  H        22.8036248200       17.9516266000       20.2067275200
  H        18.4009780400       18.4913843800       22.7811686400
  H        18.2093531100       19.3604781900       24.2590399900
  H        17.3902275100       23.9263233900       17.6605387700
  H        18.4052240800       23.0215174700       18.4181423600
  H        23.3882688800       19.8387165200       18.8104873200
  H        24.1819259200       20.7427811100       17.9001670700
  H        18.8088312100       19.8976342000       19.2371651200
  H        19.4230445400       18.6955660700       19.9654798100
  H        22.0890227700       15.4324485700       20.1579411100
  H        21.4222193700       16.4707861000       19.1504605800
  H        19.3206101900       21.6132543500       21.2711562900
  H        18.4752803100       20.6580771400       22.2707092300
  H        22.9543082000       21.9044748700       19.4835121300
  H        22.3692573900       22.0533495400       20.8615920600
  H        21.0011354900       16.1128318300       16.9754970100
  H        20.6721087200       17.4332701700       17.5612297600
  H        17.6420571400       21.0514709400       20.2957808300
  H        17.0119416200       21.4230128500       18.8777756100
  H        17.0638157200       18.9251431300       17.3154787400
  O        17.0134811600       17.9181874900       17.4412312600
  O        21.0778890200       19.3853591600       17.2186495300
  O        18.2343528300       17.6822829800       21.1792161500
  O        19.4951918800       23.1724991100       19.7159389600
  O        15.9053482900       18.0492946300       19.9519998100
  O        21.6357589900       24.6261401000       18.8640974100
  O        21.1565840900       20.8084958200       21.4313415800
  O        17.8757341800       20.3199065200       16.5161696500
  O        23.3417614600       18.7724930600       20.2902266900
  O        18.6201541800       19.2817219300       23.3792597700
  O        17.6824685400       22.9863766100       17.7242091100
  O        23.2314723900       20.6387283500       18.1903328400
  O        19.7275702400       19.5481602100       19.4862909000
  O        21.9059557800       16.3678696900       19.9940316900
  O        18.4130658000       21.4620068500       21.6660653400
  O        22.9341887100       22.5621683300       20.2289866400
  O        20.4353158100       16.4732434500       17.7101068400
  O        17.1816455300       20.6698577700       19.4913544700
      54
 i =        1, time =        0.000, E =      -309.9592882098
  H        18.0281022100       17.3962309800       17.3070716200
  H        20.1601552400       19.7672824900       18.4179807400
  H        21.3266604100       19.9890275600       17.3910948400
  H        17.5240869500       16.6391163300       21.2020112100
  H        17.0202936800       18.0536515600       20.5859434600
  H        19.2572466200       23.3961697100       20.3068198700
  H        20.4660304100       23.4168388100       19.2569646600
  H        16.4713847600       18.0338542900       18.4991232000
  H        16.1948863300       19.3069661000       19.4467393200
  H        21.8804963600       25.4113636600       19.3291590000
  H        22.4992607800       23.9265635800       19.6157207600
  H        20.9987833500       20.5234570800       22.8843518800
  H        20.8514330700       20.2933274800       21.3960236700
  H        18.8509481000       19.9333900100       16.2297770900
  H        17.6688809500       20.7580501200       16.4574659400
  H        23.1205905200       19.1181849700       20.9337906600
  H        23.1286659600       17.8794587200       19.9138707900
  H        18.4667069100       18.2323378200       22.7524582300
  H        18.2933691600       19.0564535500       24.0433849200
  H        17.0323605300       23.4284298900       17.5242320800
  H        18.3323888500       22.9237852600       18.2065887600
  H        22.9984166900       19.7861839500       18.8933213500
  H        24.0576039200       20.3219142400       17.7745268900
  H        18.6048225900       20.2559015200       19.8336099800
  H        19.0777760300       18.8884890600       20.3640453200
  H        21.5210594700       15.7048294800       20.7131072300
  H        21.4856125100       16.3773036500       19.2951348800
  H        19.1036080600       21.9957821700       21.7475558800
  H        18.1944646300       20.9403394000       22.4574155800
  H        22.9241084000       21.9965216000       19.0413165100
  H        22.7829324100       21.7870461900       20.6497166700
  H        21.5297769100       16.8848115000       16.7379501400
  H        20.7351511800       17.9625775000       17.5829099700
  H        17.2920906300       21.4561128200       20.5003778400
  H        17.1453876900       21.5350502800       18.8354135000
  H        17.4354032100       18.7387479600       16.6430926400
  O        17.2066828400       17.8935759000       17.1643114600
  O        20.3968374800       19.6874845300       17.4304590700
  O        17.7012277300       17.6189964900       21.2630143500
  O        19.5968791400       22.9477102100       19.5132864100
  O        15.9607344300       18.3436592400       19.3938988100
  O        21.7935194100       24.4611224000       19.1167537600
  O        21.4654182700       20.6805470200       22.0563684000
  O        17.9736150500       20.0893430500       15.8240737900
  O        23.4649815700       18.8541017800       20.0340044800
  O        18.9044876300       18.8434356700       23.3522426500
  O        17.4733612700       22.5827494300       17.7577711000
  O        23.0857525200       20.4196837400       18.0490952000
  O        19.4522903300       19.6956604500       19.9668560600
  O        21.8693677200       16.4903518600       20.2382359100
  O        18.1860396200       21.8304215000       22.0490131800
  O        23.0958703400       22.4128672000       19.9549331700
  O        21.1411481700       17.0346281100       17.6349263400
  O        17.1461361400       20.8412071400       19.7059749500
      54
 i =        1, time =        0.000, E =      -309.9657406962
  H        18.0832922400       17.2492085700       17.7403969300
  H        20.0357031000       19.9590455200       18.2330739600
  H        21.4167377600       20.1307174100       17.4413624900
  H        17.6499960100       16.7018621700       21.6799054600
  H        17.2334130200       17.9808005800       20.9462857000
  H        19.0180625700       24.5398641800       19.2288151800
  H        20.4547389600       23.7924870900       19.1001652800
  H        16.5534026600       17.9845939500       18.8828264400
  H        15.9926600300       19.1732822100       19.6330208800
  H        22.2520201000       24.9349076600       19.3056671700
  H        22.5122730100       23.3423296800       19.4318643300
  H        20.5133800300       20.8524654200       22.3737744400
  H        20.2427758300       20.5313465100       20.9630049300
  H        18.9972020200       20.2283579300       16.4813880800
  H        17.7266050900       20.9986038100       16.7606442400
  H        22.8383224300       19.0571608800       20.7994358700
  H        23.0039216700       17.6241683000       20.0240974300
  H        18.4551118900       18.4610635500       23.0152241500
  H        19.3666471600       18.6522532300       24.3141527300
  H        17.1072217500       23.7245758900       17.4860635600
  H        18.3895739000       23.1547380400       18.2061422100
  H        23.3524491400       19.4574768500       18.8632566000
  H        24.2368093300       20.0319034600       17.7127705300
  H        18.1984290500       19.9733873000       19.6147010400
  H        18.9288577500       18.8015128700       20.1996926500
  H        22.5234790400       15.6736340400       19.2808905300
  H        21.5328141200       16.8013046300       18.7953479000
  H        18.7590134000       21.9046854700       21.9781486100
  H        18.3768536000       20.7078979900       22.7978533200
  H        23.9133830700       21.3149152000       19.8669849800
  H        22.7541995900       21.6808592300       20.8684949400
  H        20.4923756700       16.7488982900       16.8071526500
  H        20.4771165400       18.2581914700       17.4448590700
  H        17.2002784100       21.1757854100       20.4530536300
  H        17.1654443000       21.7761663800       18.9630149600
  H        17.6265990200       18.5680316500       16.9825745400
  O        17.3137041400       17.7884387500       17.4532746200
  O        20.4802562900       19.9006422100       17.3503733800
  O        18.0672598500       17.5841291800       21.5410732400
  O        19.3975754900       23.6555183300       19.1544396200
  O        16.2445640700       18.2490652800       19.8330184400
  O        21.9266007400       24.0246459400       19.0256896500
  O        20.8580501900       21.0887317300       21.5123827600
  O        18.0479326000       20.1518307200       16.3292158300
  O        23.4310787300       18.5424365200       20.1764453200
  O        19.0883696800       19.1160016300       23.5053487200
  O        17.6128825400       22.8775746000       17.5479647700
  O        23.3254668400       20.0321469000       18.0470384400
  O        19.1526377400       19.6347865700       19.7254279100
  O        22.0509445700       16.4844198100       19.6076209600
  O        18.0236967000       21.2883178500       22.1405349900
  O        23.4962063800       22.0862362800       20.3589340400
  O        20.4601817700       17.2437182200       17.6652116500
  O        16.8789640100       20.9894312000       19.5371446000
      54
 i =        1, time =        0.000, E =      -309.9593432032
  H        18.0977720800       17.9064927900       17.4899163100
  H        20.0555095700       19.7407410300       18.3942181800
  H        21.2328930700       20.2556100800       17.3622854700
  H        18.2122676800       16.7120591900       21.2376806400
  H        17.0442642400       17.7409102200       20.9538458400
  H        19.7861404500       22.7835824900       20.5180222100
  H        20.1261077300       23.9026316100       19.5191212200
  H        16.2612943500       17.7600559400       18.9848012900
  H        15.9835512000       18.9997365700       19.8370310400
  H        21.9298708000       25.4154547400       19.1375936200
  H        22.0705616800       23.8165315600       19.3363547500
  H        21.2341050000       20.0577009200       22.1293457200
  H        20.7512863300       20.0443766400       20.6868456700
  H        19.0624771600       20.0793694100       16.3124702900
  H        18.0832452100       21.2510041800       16.3008528500
  H        22.8438436600       18.9748364200       20.6821835500
  H        23.2154262400       17.7319911800       19.8514676900
  H        19.0712816100       18.4645042500       22.8489032100
  H        18.4849317200       19.1342232500       24.1190435900
  H        16.9875548500       23.5084226200       18.0282748500
  H        18.3327998600       23.1347073500       18.6933492700
  H        23.5052354700       19.9963933300       18.9776559300
  H        24.0006445900       20.6358849300       17.6644047400
  H        18.3220539500       20.1053801000       19.5110197400
  H        18.9402184400       18.8153003300       19.9921351800
  H        22.3276685900       15.1458447000       19.8589480400
  H        21.7507435800       16.0880396700       18.7460276500
  H        18.8865677500       21.1529056100       21.3926449000
  H        18.4371208800       20.5721494000       22.6628431300
  H        22.9739622100       22.0688474200       19.2312860400
  H        22.2499409300       22.0941782200       20.6895295800
  H        21.3534002300       16.9156015400       16.4861825700
  H        20.9817581200       18.0177485900       17.6119674300
  H        16.7540345800       21.1905965000       20.6320128600
  H        16.8024716200       21.5177710900       19.0399421500
  H        17.2498467300       19.0474434000       17.0302942700
  O        17.2252778600       18.2255149800       17.5249430200
  O        20.4374017600       19.6697462500       17.4501283700
  O        17.9566468600       17.5917180300       21.4757255700
  O        19.3975403700       23.3657248900       19.8169702200
  O        15.8604296600       18.0502474100       19.8416474500
  O        21.5577939900       24.5668963300       18.8196626700
  O        21.5467176700       20.3693371600       21.2355953400
  O        18.1420994700       20.3099918000       15.9598813900
  O        23.4843946400       18.6525146500       20.0034712400
  O        19.2681006300       19.1597076900       23.5196262700
  O        17.5902665400       22.7694457700       18.0387911100
  O        23.1699918200       20.6639561100       18.2771394800
  O        19.2435533600       19.7090338300       19.7713205800
  O        22.2194631900       16.0827017600       19.5823073800
  O        18.0950023400       21.2053531400       22.0084059000
  O        22.8171764200       22.6017618400       20.0474493200
  O        21.1106434600       17.0379996100       17.4597512800
  O        16.7325058100       20.7801007600       19.7240383600
      54
 i =        1, time =        0.000, E =      -309.9592550132
  H        18.2161868700       17.9897953100       17.4661129000
  H        20.0324177300       19.8923097700       18.4864326700
  H        21.0955810200       20.6035866100       17.5012816200
  H        18.1813972800       16.6648684500       21.6204511800
  H        16.9958967800       17.6616603400       21.1188909200
  H        19.1405879500       22.9485395700       20.7560487700
  H        19.9986605800       23.6986127600       19.6579173900
  H        16.3840255500       17.9684640300       18.7808682000
  H        15.6043621600       18.8059243600       19.6771919900
  H        21.8763255400       25.3291294600       19.5886489300
  H        21.9671785600       23.8411112700       19.2618653900
  H        21.2580825400       20.0602578700       22.3047846500
  H        20.5929705200       19.8066575600       20.9098435000
  H        18.8528127500       20.3377380500       16.3453476600
  H        17.6758100600       21.2287599500       16.8653493200
  H        23.2136292200       19.0083432400       20.7163781800
  H        23.2149152800       17.7417611400       19.9052388300
  H        18.5851562500       18.5282844000       22.8607498400
  H        18.8651315300       18.4788509900       24.3772536100
  H        17.0401656700       23.7337324500       17.4092640200
  H        18.2053540100       23.2238791600       18.3538573900
  H        23.9270854500       19.6463300600       18.6827607000
  H        24.3428432000       20.5696209500       17.3834079900
  H        18.2313350600       19.8598117300       19.7547279800
  H        18.9305863100       18.4287816200       20.3050450000
  H        22.7189891400       15.5612142400       19.3903598400
  H        21.7166087500       16.5288041200       18.6662827200
  H        19.5205347400       21.2260380900       21.9237833100
  H        18.4519906200       21.1017421000       22.9679676900
  H        23.1316980700       21.6193719700       19.3826873100
  H        22.2483491100       21.8576579900       20.7448174600
  H        20.7248366700       17.4085309000       16.5981083500
  H        20.8478686200       18.1666245800       17.8803440000
  H        17.2063866500       21.5813519900       20.6091666200
  H        17.0514145500       21.6719804600       19.0885156600
  H        17.3553257000       18.8604393300       16.7127124300
  O        17.2897949000       17.9795005300       17.1994396700
  O        20.4799493000       19.8192266500       17.5370842000
  O        17.8940557300       17.6039381900       21.5927436300
  O        19.1587288500       23.1753353400       19.8065072600
  O        16.0049972000       17.9483351300       19.7062341600
  O        21.5749207100       24.6777460700       18.9229848500
  O        21.2111271800       20.4068483400       21.3633855300
  O        17.8859502800       20.5012574800       16.2289197900
  O        23.7425571200       18.5914406400       20.0144502300
  O        19.0305431500       19.0224433800       23.5679464800
  O        17.6207337600       22.9714294200       17.6188907400
  O        23.6084001200       20.2763728300       17.9359480100
  O        19.1477957700       19.2981591800       19.7911230300
  O        22.2068020200       16.3986565300       19.5512570200
  O        18.6431159500       21.5244035600       22.1165534400
  O        22.7887593300       22.3151634600       20.0221244400
  O        20.6312378300       17.2076549700       17.5731234400
  O        16.9355587900       21.0395599200       19.8755811000
      54
 i =        1, time =        0.000, E =      -309.9647366071
  H        18.2033126800       17.5544170000       17.2347059900
  H        20.0336996100       19.3539475900       18.1284886900
  H        21.4989309900       19.7584238000       17.6429581700
  H        18.0878511500       16.4998468400       21.3547923900
  H        17.2383983800       17.6163354400       20.7527189700
  H        19.5003233200       22.7028441100       20.1127427000
  H        20.0210028800       23.8592627500       19.4259747900
  H        16.5499267700       18.0594989800       18.9127701600
  H        16.1543357000       19.0169566500       19.9515451400
  H        21.4362983800       25.2424995500       18.6370746600
  H        22.0729000900       24.2296535700       19.6419766900
  H        21.1639481000       20.7284655000       21.9137757000
  H        20.4869034900       20.6928156600       20.6128943700
  H        19.1241366500       20.2057842000       16.2446663400
  H        17.8884316000       21.1222704600       16.4599173000
  H        23.9173252600       18.3138766500       20.8662582500
  H        23.3934463700       17.6058566300       19.5856771400
  H        18.8301164900       18.3043059300       22.8508432800
  H        19.4935160000       18.4494109700       24.1951049800