      33
 i =        1, time =        0.000, E =      -189.4326147714
  H        22.5273330300       19.5432573200       17.2902680500
  H        22.7685378600       23.5089083300       20.6847519000
  H        22.5549693900       21.9459134300       20.7017201500
  H        22.0198301500       17.8957250900       22.9470580900
  H        21.8566903300       18.2150877200       21.3905820000
  H        17.6153220200       23.2930737300       18.8711311100
  H        18.5898803000       23.0273932600       20.0845999800
  H        21.8450902900       18.2085491900       19.1660008400
  H        20.7709427700       17.2884179600       19.7899788400
  H        19.6408191900       22.0298937000       21.9814669500
  H        20.5234573800       23.0878252300       21.3068943800
  H        18.3679864000       20.1672217900       21.3783926300
  H        17.6198935700       20.8498832900       20.1428459700
  H        21.0991220900       22.1054152000       19.1339594900
  H        19.7030278000       21.8170501400       18.5317584000
  H        23.3411666400       20.2819253100       19.6765417500
  H        23.0841528300       19.9086070100       21.1368675100
  H        20.6384602300       19.6651179100       22.5737164600
  H        19.5798571400       20.3266901600       23.5662793500
  H        18.4958142500       18.2376062400       20.2681599600
  H        18.4962288900       17.7800086900       18.8951686500
  H        21.5156659600       20.3760046500       18.1379835100
  O        22.2585460600       19.6489867300       18.2387853400
  O        22.0550146100       22.8428153700       20.6940926600
  O        21.7858127600       18.6508740500       22.3089526800
  O        18.2519206100       22.6212149600       19.2446256600
  O        21.7272053700       17.4847853800       19.9175166600
  O        19.5595601900       22.9089948900       21.4947844500
  O        17.6833082400       19.9712010200       20.6461107800
  O        20.6795585500       21.6760955500       18.3376889500
  O        23.4046164600       20.6695306200       20.6355500100
  O        19.9864975100       20.4234372000       22.6813613400
  O        18.7460444900       17.3850898900       19.7660293400
      33
 i =        1, time =        0.000, E =      -189.4037323127
  H        21.9990118700       19.5130930700       17.1830148700
  H        22.8262533100       23.5470514400       20.7589787400
  H        22.7966649000       22.0761973500       20.7479450600
  H        21.8151966100       18.2442304000       22.6681851900
  H        21.4655455100       18.3012031600       21.1413243200
  H        17.7970745900       23.3788530900       19.2146542200
  H        18.9108535400       22.6814280100       19.9629323400
  H        21.5392350200       18.3384157800       19.1888053700
  H        20.5446299600       17.1910261100       19.7263110300
  H        19.3423558600       22.2759767400       22.2478856000
  H        20.5988714500       22.9813587000       21.4561753800
  H        18.3560088700       20.1527006700       21.4101690400
  H        18.0757313000       20.6373491300       19.7822435100
  H        21.1996509100       22.2657842100       19.1588972400
  H        19.8587273200       22.3450277700       18.2464221100
  H        23.3919529500       20.3993719500       20.1469157400
  H        23.1796737500       19.9685448900       21.5348867800
  H        20.4208086700       19.8191812000       22.4775570200
  H        19.4749374000       20.0220269300       23.7861613300
  H        18.4891624400       17.9100936400       20.3282525600
  H        18.0851309300       16.4223157900       19.9954141300
  H        21.5633699500       20.4444052400       18.2555729800
  O        22.0173833200       19.5101869400       18.1447877900
  O        22.2282276600       22.8707899000       20.4745385200
  O        21.8247185400       18.8876218400       21.9400531100
  O        18.4707445500       22.6274224400       19.0701050700
  O        21.4819450200       17.5880820500       19.8624064600
  O        19.5928363100       23.0931750500       21.6662274000
  O        18.0017645000       19.8511965900       20.4568925200
  O        20.7346610300       21.8944718000       18.3299829200
  O        23.5636071100       20.7751399000       21.0476997100
  O        19.4904124500       20.1964704700       22.8552953300
  O        18.7899622600       17.0290394200       20.0064596400
      33
 i =        1, time =        0.000, E =      -189.4189567128
  H        22.7326043100       19.5818480300       17.3716043400
  H        22.5914176600       23.8028216400       20.4584232200
  H        22.4688290500       22.1336912000       20.6200703600
  H        22.5550950200       17.9331211700       22.6332457800
  H        21.8216657800       18.1890157100       21.2053340900
  H        17.3470698200       23.1027675400       19.4027582800
  H        18.6104730700       22.9487293700       20.2590735700
  H        21.7087604100       18.2881401700       18.9387035500
  H        20.5873645100       17.3489817300       19.4549499000
  H        19.6879496600       22.1551420900       22.0621439400
  H        20.4475265300       23.2386698800       21.3540167900
  H        18.8609002900       20.0107632200       21.4870947000
  H        18.1328537300       20.5680942400       20.2230387100
  H        20.6456959300       22.5532190600       18.8195760000
  H        19.4760736900       21.7571974500       18.7345620400
  H        23.3388865300       20.3431487000       19.7288449100
  H        22.8948171200       20.1877272000       21.1347230000
  H        20.4401122400       19.5217307900       22.8688711100
  H        19.1914024900       20.1417608600       23.6457624400
  H        18.3191825200       18.0622125600       20.1911129100
  H        18.0276289300       16.5705032600       19.9464251200
  H        21.7858267500       20.5452219800       18.2526873600
  O        22.5366650300       19.8425125600       18.3152683800
  O        22.0209620400       23.0287418400       20.4938016700
  O        22.0247176400       18.5530584100       22.1291147100
  O        18.1022293100       22.4978024900       19.4470773800
  O        21.5160666200       17.5614447800       19.6126710000
  O        19.5448371400       23.0557153300       21.6748225800
  O        18.2927526900       19.7486369700       20.7606689300
  O        20.3780786600       21.7038612700       18.4028436800
  O        23.4363898300       20.8097617200       20.5834301900
  O        19.7790041600       20.2642478800       22.8929334800
  O        18.5682586700       17.2534739200       19.5812369300
      33
 i =        1, time =        0.000, E =      -189.4140819967
  H        22.2677503900       19.5568502800       17.1056888100
  H        22.8453503400       23.7705169000       20.2324660100
  H        22.8241694900       22.2100056200       20.4371382300
  H        22.8067042600       18.2903163800       22.7286032000
  H        21.8440882500       18.2340295600       21.2596424500
  H        17.3336631300       22.4832902600       19.1209073300
  H        18.6296738100       22.4307132600       19.9770310400
  H        21.6439626300       18.1379787500       19.3497760200
  H        20.3396889800       17.4646737400       20.1258109400
  H        19.4097220600       22.2586801500       21.7620797700
  H        20.2663177800       23.4230095200       21.1712846400
  H        18.2306461500       20.3797867200       21.5976897100
  H        17.9527388100       20.5233379000       20.0291260700
  H        21.2882011800       22.3423454000       18.6599636200
  H        19.6845647100       21.7338796000       18.5084870900
  H        23.2424474900       20.3437894600       19.6479419400
  H        23.0451048200       20.1084631500       21.1673903000
  H        20.8071821800       19.9665831800       22.5439221900
  H        20.2359847700       20.6939895200       23.8308457700
  H        18.3845471400       18.1797314200       20.6488896200
  H        17.8579619600       16.9910298500       19.8992657300
  H        21.6370707200       20.4100255800       18.2416329000
  O        22.0292113500       19.5278293700       18.0974526700
  O        22.2377715300       22.9891563200       20.4141475900
  O        22.1953376000       18.8049784300       22.0976523200
  O        18.1763163300       21.9555521500       19.2000758500
  O        21.3673207600       17.6005278800       20.1129470100
  O        19.2827582600       23.2000964800       21.3190489800
  O        17.8892262500       19.9180805600       20.7855531200
  O        20.6271104300       21.7712353700       18.1611227200
  O        23.6240813100       20.6875947000       20.4925524200
  O        20.0666657800       20.5342835400       22.8779776700
  O        18.6471181100       17.2701619700       20.3824301500
      33
 i =        1, time =        0.000, E =      -189.4124696010
  H        23.1878524800       19.6502367200       17.5125637100
  H        22.5362156900       23.8450940900       20.5811204600
  H        22.6058943100       22.3119949000       21.0652216800
  H        21.8082404200       17.7435951300       22.4654653100
  H        21.6495018100       18.3514619700       21.0861730400
  H        17.7870920600       23.1723895400       18.8827248600
  H        18.5749511800       22.8590386500       20.2454838400
  H        21.5187485700       18.3259502000       19.0904587500
  H        20.2788732600       17.4989073900       19.7026569000
  H        19.2961730000       22.8173047100       21.9993929100
  H        20.4281897300       23.6493956500       21.2709135400
  H        18.7182391700       19.9956777000       21.3092330300
  H        18.0377851100       20.6388658300       20.0329397700
  H        21.2954436400       21.7709696600       19.1552221000
  H        19.8314027500       21.7023945900       18.6928723900
  H        23.2919822000       20.3194696000       19.6945726700
  H        23.1167904200       19.9382424900       21.1891654900
  H        20.7365252900       19.6165739200       22.3750984600
  H        19.3465397000       19.5266765000       23.0762661000
  H        18.2655850700       18.3743149700       20.0805512700
  H        17.6180892400       16.9938747700       19.6869001300
  H        21.7949573600       20.1895280200       18.1633035700
  O        22.6327896400       19.5948862900       18.3191136900
  O        22.0124184000       23.1338521600       21.0718210600
  O        21.9681710100       18.6404594900       22.0065451100
  O        18.0606293600       22.3998294500       19.4498571500
  O        21.2285661400       17.5997764600       19.7176031500
  O        19.4172699800       23.4691023500       21.2753929800
  O        18.1477470600       19.7947002500       20.5534371100
  O        20.7737390100       21.5092452000       18.3885044900
  O        23.5457298300       20.5754363200       20.6219063200
  O        19.9417775500       20.2029014200       22.6346160800
  O        18.4677886100       17.3796972700       19.9454649100
      33
 i =        1, time =        0.000, E =      -189.4155139757
  H        22.4509208600       19.3128189500       17.5566199600
  H        23.1951717200       23.6412515100       20.5047164800
  H        22.8975909100       22.3198351900       20.7043203400
  H        21.9726271500       17.5580858700       22.6270197100
  H        21.7383239100       18.0133853200       21.1145026400
  H        17.5788871900       23.3042924500       19.4165914300
  H        18.7634053700       22.7263145200       20.1457161600
  H        21.6113458100       18.2102395200       19.2819985900
  H        20.3597636800       17.2066160300       19.7106395500
  H        19.5583614900       22.4242688400       22.1653369200
  H        20.5449589600       22.8872875900       21.2208350900
  H        18.2067099000       20.1234384700       21.4441589900
  H        17.8099842600       20.7940358600       20.1129712500
  H        21.1697512800       22.7645997100       18.7325515400
  H        19.7956361000       22.2858833300       18.4144124400
  H        23.5407283100       20.4175870400       19.8832284400
  H        22.9515519500       19.9328871700       21.1393188000
  H        20.5456686100       19.7713928500       22.4436705200
  H        19.5902914000       19.8923632300       23.5783569400
  H        18.4593091400       18.2060730300       19.8804266300
  H        18.0661353800       16.8653873900       20.3679351600
  H        21.5715438700       20.2881825700       18.3372713500
  O        22.2038446000       19.5819095600       18.4680122100
  O        22.4080392600       23.1148768100       20.4020337400
  O        21.9204096700       18.3602043500       22.0594013100
  O        18.1006859600       22.5211414200       19.4435748000
  O        21.3391580500       17.3875752800       19.8515310200
  O        19.6459384600       23.1136029800       21.5074686700
  O        17.7745603800       19.9129372100       20.5582731900
  O        20.7206954100       22.0615559400       18.2376475000
  O        23.5445098700       20.6582977200       20.8230551900
  O        19.7721968700       20.3320514900       22.7367973600
  O        18.7254090200       17.2775163000       19.8067306300
      33
 i =        1, time =        0.000, E =      -189.4208602277
  H        22.6653210600       19.7533905400       17.8515680400
  H        23.0434501100       23.7347909500       20.4050441400
  H        22.8192347500       22.2060158600       20.8053463300
  H        22.3491588200       17.8040335400       23.0224609100
  H        21.8944958600       18.0465045000       21.5027158800
  H        17.4127755500       22.7203952700       18.6628985300
  H        18.2064079800       23.0765714700       20.0359951200
  H        21.6795703500       18.1715595000       19.2299858800
  H        20.6625679300       17.1623585800       19.7201426500
  H        19.4821487600       22.6724712300       22.0891439300
  H        20.6120501900       23.4763770100       21.3744620700
  H        18.2933714500       19.6018587300       21.2531399200
  H        18.0886378500       20.1955964800       19.8405590500
  H        21.4582807300       22.6806604800       18.9940710000
  H        19.9660838500       22.3129584100       18.6204212200
  H        22.7245575100       20.2212855900       20.1317862200
  H        22.9246231000       20.1107473500       21.6219730300
  H        20.5271312700       19.5653134300       22.1944623700
  H        19.2500731800       19.6510427900       23.2420572300
  H        18.4587438400       18.0347019900       20.0522013400
  H        18.2168110300       16.3940091100       19.9377428700
  H        21.5211035800       20.7349929600       18.3699380200
  O        21.9564437000       19.8441676200       18.5850807100
  O        22.3172824900       23.0669985700       20.5547220700
  O        22.0758864100       18.4833456100       22.3585404900
  O        18.2849453300       22.6507214000       19.1524101900
  O        21.6020132500       17.4205386400       19.8124685600
  O        19.6390469500       23.4231189500       21.5265488900
  O        17.6991225400       19.5436278200       20.4326929000
  O        20.8852367200       22.2197274900       18.2804083100
  O        23.2348109700       20.6439740700       20.9145273300
  O        19.5820785200       19.9664176300       22.3583295200
  O        18.8862714800       17.0980049000       19.9077384100
      33
 i =        1, time =        0.000, E =      -189.3940679595
  H        21.4241812100       19.3185139300       16.8222297100
  H        22.8107828400       23.7600969600       21.0357214600
  H        22.5257818700       22.1839811300       20.7646549900
  H        22.4505586000       18.2052079900       22.4167545300
  H        21.7347515200       18.2278015300       20.9645158200
  H        17.2346887900       22.8167634300       19.0458435100
  H        18.1089421800       22.7103086800       20.3321765000
  H        21.6559372300       17.8175680400       18.9743150100
  H        20.6065992700       17.0484456300       19.9058683400
  H        19.7627482800       22.1139031200       22.0479755700
  H        20.5750896100       23.3671404700       21.5568071500
  H        18.8419856900       19.7694995700       21.5774367600
  H        18.2318750500       20.7797451200       20.4798622500
  H        21.0588024000       22.3106577700       19.2243842400
  H        19.7760527500       22.3574075400       18.4980580500
  H        23.3064980000       20.0760001900       19.9037145100
  H        22.7903287700       19.9320236200       21.2107855700
  H        20.5967749600       19.7055343800       22.9367063300
  H        19.4007953400       20.2486751500       23.8672874500
  H        18.5593752500       18.0356244700       20.1301555700
  H        17.9346538600       16.6382972300       20.1911770000
  H        21.4298252100       20.2994446200       17.9657573300
  O        22.0395367400       19.5531608900       17.5954555000
  O        22.2630834200       23.1274000900       20.4715892400
  O        21.8438523000       18.7661845400       21.8604090400
  O        18.1901768500       22.7032487200       19.3388482900
  O        21.5217637600       17.4110423200       19.8448922600
  O        19.6315508900       23.0443557400       21.7812160800
  O        18.1023825300       19.8590622600       20.8855848100
  O        20.6067751000       21.8341431100       18.4757297100
  O        23.4483540700       20.5810977800       20.7295498600
  O        19.8861989100       20.3867070700       23.0467281000
  O        18.7201623600       17.1323572700       19.7971344500
      33
 i =        1, time =        0.000, E =      -189.4063159354
  H        22.6034414500       19.4843866200       17.0727283000
  H        22.1782611100       23.5911562800       20.5903578500
  H        22.7858997500       22.3002198100       20.2595733700
  H        22.3788195600       18.3851547800       22.6793000900
  H        21.6292109200       18.6082303100       21.3586685300
  H        17.5575535500       22.9017229000       19.4103161300
  H        18.6511358300       22.6870457800       20.4459722000
  H        21.3978303100       18.3784973400       19.2527694800
  H        20.4336459800       17.3145283400       19.8438833300
  H        19.7458211500       22.2113023700       22.4781128900
  H        20.4278624900       22.3614232000       21.1623440600
  H        18.4832693300       19.9102715000       21.4315090600
  H        17.9907148200       20.5019361300       20.1510016700
  H        21.1545925900       22.3620621900       18.6110750300
  H        19.8018079800       22.1492874200       18.0931719400
  H        23.7451417300       20.1372749800       20.3996754300
  H        23.4829129800       20.5432806400       21.8250692200
  H        20.3809400100       19.7366181900       23.0943992400
  H        18.9699115600       20.0957916700       23.8915336400
  H        18.3713335700       18.1253565300       19.9736909600
  H        17.6878288100       16.6614087700       19.6859448700
  H        21.7788023900       20.2553591500       18.0051128300
  O        22.3014112200       19.4056381200       17.9920051600
  O        22.0389874400       22.8485707200       19.9457552900
  O        22.0477296000       19.1316846500       22.1707813000
  O        18.3324604100       22.3740327400       19.6091383200
  O        21.2107034300       17.8553127300       20.0936136400
  O        19.6842833600       22.7891189600       21.6491488200
  O        18.0114537900       19.6513806000       20.6034463900
  O        20.6882021800       21.9339319400       17.8831827900
  O        23.8017382500       20.9000320100       20.9888362000
  O        19.5571536000       20.2945153500       23.0843633200
  O        18.5280687400       17.1528186000       19.8154332000
      33
 i =        1, time =        0.000, E =      -189.4202228286
  H        23.1208740500       19.9378947900       17.6060988400
  H        22.5835014800       23.7550642700       20.5297119600
  H        22.6938451100       22.1793402100       20.6124214000
  H        22.5764128900       18.5585141100       22.3491068300
  H        21.6195917300       18.5285464000       21.1705401200
  H        17.3495192100       22.7298003500       19.1314193800
  H        18.4750182600       22.5880948400       20.1638144100
  H        21.5854063800       18.0443016100       19.1876227600
  H        20.4605621200       17.2843213200       20.1606313300
  H        19.6463011000       22.2032866500       22.1363013100
  H        20.3841239800       23.2687503200       21.2715543000
  H        18.6605750700       20.1648090200       21.2505035900
  H        17.7803593100       20.4472706900       19.9424345700
  H        21.4256746200       22.6610532100       18.5770329200
  H        20.0714165700       21.9116190000       18.4863087000
  H        23.2293552900       20.4318903700       19.8017954600
  H        22.8377509700       20.1464749400       21.2192860500
  H        20.4440122200       20.1156536400       22.8923197900
  H        19.1943658800       20.3683125500       23.7571704700
  H        18.4852598300       17.8009131100       20.3144538400
  H        18.0408354100       16.3585672300       19.8302124500
  H        21.7062716200       20.3343289600       17.9582905700
  O        22.4012707400       19.5686698200       18.0962575900
  O        22.1118068000       22.9459248100       20.2521609300
  O        21.8105126400       19.1032686700       22.0338010700
  O        17.9658193200       22.0914440900       19.4187222300
  O        21.4230038800       17.6376303300       20.0582360800
  O        19.4629790600       22.9803242900       21.5404962100
  O        18.1126362400       19.6560525600       20.5308860900
  O        20.8934763200       21.9901504100       17.9848152700
  O        23.4681707300       20.6609859000       20.6887391100
  O        19.7278066900       20.7561375400       23.0575920300
  O        18.7784461000       16.8761045900       20.2601355000
      33
 i =        1, time =        0.000, E =      -189.4256734699
  H        22.6449528600       19.9415286900       17.4811995600
  H        22.7196411200       23.9911777600       20.2832885800
  H        22.7540521300       22.4454423900       20.5394428600
  H        22.4842631900       18.2718720000       22.7877586000
  H        21.7684662500       18.4016431600       21.2746934700
  H        17.1991373200       22.7720357500       19.4510858500
  H        18.4995867100       22.6894573100       20.4397655500
  H        21.8696396000       17.9796327200       19.2424415800
  H        20.5827519400       17.2748254900       20.0066541200
  H        19.6462729400       21.9835858300       22.0178321800
  H        20.4793123400       22.9444973200       21.2114823500
  H        18.1317758700       19.5809315100       21.2788153800
  H        17.6311257000       20.5344868400       20.0939497200
  H        21.1073338600       22.4549092100       18.6972488500
  H        19.7527522100       21.9306951600       18.2194432800
  H        23.6545629500       20.1577114100       20.0800073700
  H        22.9364466500       20.3923098800       21.3892986500
  H        20.7723088800       19.8419845500       22.6511484100
  H        19.8164434200       20.3398103700       23.7454193200
  H        18.2583306300       18.1465319100       19.9022191400
  H        18.3432172200       16.7627744900       19.0994442600
  H        21.4185411500       20.1567070200       18.4250791400
  O        22.2514291400       19.6140578200       18.3642791700
  O        22.1786359400       23.2168861600       20.4161420100
  O        22.0044420300       18.9163860000       22.2043686100
  O        18.0940899200       22.3232603800       19.5302837800
  O        21.5755452600       17.3704085200       20.0215624600
  O        19.5609834600       22.8742887300       21.6126635400
  O        17.6408925700       19.5787759500       20.4236606000
  O        20.7010084700       21.9330484200       18.0385591400
  O        23.5070531400       20.8887560200       20.7219458300
  O        19.8949595600       20.3399429600       22.7818543300
  O        18.7405961000       17.2628134800       19.8084954600
      33
 i =        1, time =        0.000, E =      -189.4150785640
  H        22.7344839700       19.7747741500       17.3520642400
  H        22.8404287400       23.8889658900       20.8401066400
  H        22.8853797600       22.3369025000       20.9905404900
  H        22.0034855000       17.8690486100       22.7540414900
  H        21.6463695100       18.4295938300       21.3611983800
  H        17.6280533000       22.8936152300       18.8959021700
  H        18.5926080100       22.7534025500       20.1081470700
  H        21.6649412400       18.5678123500       19.1113502100
  H        20.7097965200       17.4945540900       19.7737421800
  H        19.6474289900       22.0400350800       22.0230366100
  H        20.3522818700       23.2162256900       21.5011039500
  H        18.5065212400       19.5027896700       21.1817513700
  H        18.1757986000       20.3845617400       20.0002953600
  H        21.3340903200       22.5903605200       18.4934400600
  H        19.6963726400       22.2145347300       18.3875066900
  H        23.2214509200       20.3809367100       20.0402356600
  H        23.4674926200       20.0076486700       21.5039375100
  H        20.2620943400       19.4617126900       22.8340268400
  H        19.0725241200       19.8024859800       23.6981836300
  H        18.2436878400       18.1046491100       19.9851621100
  H        18.1124848400       16.5939990500       19.4817810700
  H        21.4175960400       20.3235255900       17.8415740800
  O        22.1512197900       19.6887746500       18.1131216200
  O        22.2797484000       23.0897590800       20.6599872400
  O        21.9726628200       18.6991646400       22.2784114300
  O        18.3777398600       22.3974375500       19.1953056300
  O        21.5808577100       17.8803962800       19.8794704300
  O        19.4141327400       22.9155003500       21.7061574600
  O        17.8584746000       19.5889662900       20.4232879400
  O        20.6175956900       22.1081380000       17.9592062400
  O        23.7070563600       20.6538892700       20.8482689200
  O        19.5065118600       20.1361011900       22.8924710500
  O        18.6997360200       17.1833307900       19.9781188100
      33
 i =        1, time =        0.000, E =      -189.4182054667
  H        22.3800706400       19.8782159800       17.3985411600
  H        23.0949316500       23.8765761800       20.4499505600
  H        22.9288768300       22.3081360600       20.3168233700
  H        21.9600515900       17.6089383600       22.5785634100
  H        21.6715818500       18.1407833400       21.1403558900
  H        17.6701202500       23.4132349200       19.4013572400
  H        18.7881340400       22.8278885400       20.4360747400
  H        21.6085091300       18.1410317300       19.0994267600
  H        20.2782571300       17.3540449100       19.4715498100
  H        20.0383799000       22.1299366900       21.9428633500
  H        20.7216752300       23.3085122300       21.3536137800
  H        18.5565705200       19.7411842100       21.4680143600
  H        17.9917266800       20.5977998500       20.2449110900
  H        21.3591085200       22.5498582600       18.9500639900
  H        19.9095402700       22.5662863700       18.4921939600
  H        23.4370698000       19.9605548400       19.8479291900
  H        22.9689561300       19.9166071600       21.4234154000
  H        20.6110757400       19.5847491300       22.5278927100
  H        19.7435643200       20.5289933500       23.5612250500
  H        17.9154344000       17.9639329300       20.0579730600
  H        18.2561768900       16.5892231800       20.6302115500
  H        21.3912028700       20.5491630400       18.4030432400
  O        22.0932572300       19.8122933500       18.3227983000
  O        22.4443611100       23.1300551800       20.5606334700
  O        21.7636283100       18.4076766200       22.0602808800
  O        18.2832040200       22.6840565600       19.5403268900
  O        21.2691680700       17.3788690200       19.6048619700
  O        19.8241148200       23.0885184800       21.7210133500
  O        18.0713502200       19.7534241000       20.6514618900
  O        20.7819300700       22.2144512400       18.2404439700
  O        23.3396489600       20.5037442600       20.6837942000
  O        19.8077056500       20.1799713900       22.6622631300
  O        18.4202276800       17.1314727700       19.8206020900
      33
 i =        1, time =        0.000, E =      -189.4255208460
  H        21.9203309900       19.6545923600       17.3568562400
  H        22.7038778900       23.7150366100       20.5896385100
  H        22.7181381300       22.1375165200       20.4714288600
  H        22.3916663100       18.0733846800       22.8918826500
  H        21.7336132500       18.1268507000       21.4934207700
  H        17.6626292400       22.4232317600       18.9067239200
  H        18.5789167600       22.5612243600       20.2298317900
  H        21.3655931400       18.5058548700       19.4694547200
  H        20.4795767700       17.2234563800       19.9078267700
  H        19.5547367700       22.2288469100       21.9778967800
  H        20.4089571300       23.0592168300       21.0506208200
  H        18.6656194900       19.9682494000       21.6632377100
  H        17.9888413400       20.0259198800       20.2441585800
  H        21.0593704400       22.8248286800       18.6850584900
  H        19.6422455600       22.1767709400       18.3561447900
  H        23.1045793800       20.3240535000       19.6758982900
  H        23.0538648400       19.9900582900       21.1698739600