       3
 i =        1, time =        0.000, E =       -17.2044629618
  H        21.1196814500       22.6443672900       24.6667731600
  H        20.8046809600       23.5781831800       23.5549128700
  O        21.2711238900       22.7303066800       23.7156420100
       3
 i =        1, time =        0.000, E =       -17.2048780989
  H        20.3403645600       23.1320977800       23.5157843000
  H        21.0978717400       21.7982064400       23.4329749400
  O        21.1911688200       22.7570466500       23.2213768800
       3
 i =        1, time =        0.000, E =       -17.2036227848
  H        22.1678625100       22.7645810100       22.6918360500
  H        20.7026241100       23.3882874300       22.8076846500
  O        21.4557299500       22.9812077400       23.3426922500
       3
 i =        1, time =        0.000, E =       -17.2026170740
  H        20.3864295500       22.4458589500       23.7567205300
  H        21.5798091900       21.8294136200       22.9768387600
  O        21.2453987900       22.6810392100       23.4275555500
       3
 i =        1, time =        0.000, E =       -17.2038923724
  H        21.1980173600       23.3317215800       24.0860078100
  H        21.7536429300       23.6605480900       22.7276402900
  O        21.1684513400       22.9746475900       23.1571854200
       3
 i =        1, time =        0.000, E =       -17.2014429864
  H        20.4046721200       22.2818303300       23.1221781900
  H        21.6650020800       21.9577256100       23.8018087600
  O        21.1780522400       22.7430859300       23.6038057900
       3
 i =        1, time =        0.000, E =       -17.2037994526
  H        21.2558043600       22.3413677500       24.1813697500
  H        21.1576370500       22.1999974700       22.7043766100
  O        20.7910706600       22.7142874600       23.4093535600
       3
 i =        1, time =        0.000, E =       -17.2037205665
  H        20.8154639100       23.7767657900       23.3280488200
  H        20.0100707000       22.5924773000       23.0505201500
  O        20.9038870600       22.8008049600       23.4121042800
       3
 i =        1, time =        0.000, E =       -17.2016951661
  H        21.9200654100       22.8034512600       22.8424625100
  H        20.8211103500       23.4370346700       23.7533451900
  O        20.9739833500       22.6049250900       23.2184044900
       3
 i =        1, time =        0.000, E =       -17.2047258507
  H        22.2355271800       22.5982102900       23.3468910600
  H        21.1457100100       22.6901661900       24.4270459400
  O        21.3257062900       22.9629392600       23.5127167000
       3
 i =        1, time =        0.000, E =       -17.2029719304
  H        21.0604560800       21.8150809500       22.6917215700
  H        20.4776979800       22.9555197300       23.4399466600
  O        21.3766898500       22.5254646700       23.2518084500
       3
 i =        1, time =        0.000, E =       -17.2018928655
  H        21.6976361800       22.3223058300       23.1622131600
  H        21.3160370100       23.8234267200       23.5739138700
  O        20.9441657800       22.8974072300       23.3213347700
       3
 i =        1, time =        0.000, E =       -17.2047160125
  H        20.3663865400       22.7675426000       24.0499274900
  H        20.3453948600       23.2446233700       22.6170613300
  O        20.9798475300       22.9789604000       23.3055351400
       3
 i =        1, time =        0.000, E =       -17.2034579186
  H        20.9685020200       22.3825535000       23.9950296800
  H        19.9490336200       23.3113982600       23.2015333300
  O        20.8552430000       22.8913561600       23.1852163900
       3
 i =        1, time =        0.000, E =       -17.2042560871
  H        20.3106076400       21.9432889400       22.7447973500
  H        21.5870627300       22.6543632400       23.0593509100
  O        20.6329183300       22.7206935900       23.1998637200
       3
 i =        1, time =        0.000, E =       -17.2040540922
  H        21.6572509600       22.6255537400       22.7087159900
  H        20.4662699700       23.5475092800       22.7285824800
  O        21.0563234800       23.0284022900       23.3244367700
       3
 i =        1, time =        0.000, E =       -17.2037375266
  H        20.4499917600       23.0525617200       22.8239439400
  H        21.6464475500       22.3105509400       22.3699283500
  O        21.3029415900       22.7788165500       23.1861256700
       3
 i =        1, time =        0.000, E =       -17.2040362888
  H        21.9203451200       23.3868893500       23.3234254900
  H        21.1220213900       22.2666558800       22.6705860300
  O        21.0385046200       22.9759895900       23.2962202100
       3
 i =        1, time =        0.000, E =       -17.2010104771
  H        21.8873097200       22.6998357400       23.5169822400
  H        20.3529988000       22.1623742700       23.5857289900
  O        21.1157314200       22.2596672200       22.9743663900
       3
 i =        1, time =        0.000, E =       -17.2040421198
  H        21.1642259300       23.4007807800       23.9142208100
  H        21.6762355500       23.4932531900       22.4155351500
  O        21.1195276800       22.9462671000       23.0487063900
       3
 i =        1, time =        0.000, E =       -17.2047197011
  H        20.3515831500       23.2365580300       22.9056260700
  H        21.7012679000       23.3641126500       23.5887562500
  O        21.2164757100       22.7627849600       22.9951923400
       3
 i =        1, time =        0.000, E =       -17.2038215410
  H        20.6641381500       21.8352590600       23.1974020300
  H        21.6823883200       22.5646093800       24.1340866200
  O        21.0753851400       22.6831135900       23.3571993200
       3
 i =        1, time =        0.000, E =       -17.2018896633
  H        20.6040805000       22.2756747000       22.6286373700
  H        20.9146353500       22.7855651600       23.9819888300
  O        21.3770031700       22.7433170200       23.0913374700
       3
 i =        1, time =        0.000, E =       -17.2040637509
  H        20.2138089900       23.4337349100       23.3955857600
  H        21.5092693000       23.2872520300       22.5601711200
  O        20.8992535000       22.7782893000       23.1816063600
       3
 i =        1, time =        0.000, E =       -17.2037529657
  H        21.6903020700       22.7454378700       23.1299779000
  H        20.1647379400       22.6090009300       23.1834522000
  O        20.9560787300       22.3313117300       23.6188999300
       3
 i =        1, time =        0.000, E =       -17.2035994813
  H        21.5242106100       22.3264616500       24.0955778600
  H        20.6862134600       21.8905893700       22.9795306000
  O        21.3070618300       22.6351467700       23.1962295100
       3
 i =        1, time =        0.000, E =       -17.2040108397
  H        21.8623501800       22.8606818500       23.3479813600
  H        20.4149321200       23.0414797000       22.7379971500
  O        21.0453782700       23.4259426400       23.3619617800
       3
 i =        1, time =        0.000, E =       -17.2020268254
  H        20.3706858800       23.8594024800       23.7402411500
  H        21.0206888800       23.0110151700       22.7483999900
  O        20.7409994300       22.9180777400       23.6570872200
       3
 i =        1, time =        0.000, E =       -17.2023950445
  H        21.2792216800       23.0427614100       24.4606405500
  H        20.5993516800       23.7560038200       23.3856788900
  O        21.0258238200       22.9358528800       23.5127414300
       3
 i =        1, time =        0.000, E =       -17.2044767491
  H        20.5809033300       21.9934020300       23.5376573000
  H        21.7244445600       22.8545878300       22.8893734600
  O        21.0148522500       22.8680654000       23.5673969900
       3
 i =        1, time =        0.000, E =       -17.2037293219
  H        22.0060224400       23.0528491000       23.7327410000
  H        20.7798440700       22.1255726800       23.6271075100
  O        21.1398726900       22.9531808800       23.2174887600
       3
 i =        1, time =        0.000, E =       -17.2032910525
  H        21.9177564000       22.7137958400       22.6442248700
  H        20.5678749700       22.7630894300       22.0789071700
  O        21.0234900600       22.6222402300       22.9505243900
       3
 i =        1, time =        0.000, E =       -17.2039263883
  H        20.5569739700       23.7802835100       23.2310225500
  H        20.4885996200       22.4652278800       24.0361990000
  O        20.9262838900       22.8569046000       23.2855210400
       3
 i =        1, time =        0.000, E =       -17.2031191044
  H        20.6994199400       22.1188597400       22.8716644500
  H        20.1971322600       23.4475188300       23.4732508300
  O        21.0422155600       22.9049857200       23.4124379900
       3
 i =        1, time =        0.000, E =       -17.2032911736
  H        20.7598896400       23.4799595400       24.1948459200
  H        21.4645510500       22.2141867300       23.4878710800
  O        21.1815059900       23.1362326500       23.3559847400
       3
 i =        1, time =        0.000, E =       -17.2008385230
  H        20.1438015500       23.2245690300       23.7387234500
  H        21.5276672400       22.9711637300       23.0613909900
  O        20.8935061100       22.6018201600       23.6199568900
       3
 i =        1, time =        0.000, E =       -17.2042047498
  H        21.6091823300       23.3915168600       22.7999216200
  H        20.1398515100       22.9886751700       23.1507625400
  O        21.0383675400       23.0277747200       23.5419839100
       3
 i =        1, time =        0.000, E =       -17.2036812462
  H        21.7742200300       23.3681064300       22.5724028400
  H        20.2264050900       23.3102128000       22.8499866800
  O        21.0699970500       22.9495682000       23.1672333400
       3
 i =        1, time =        0.000, E =       -17.2035201125
  H        20.3043341800       23.5282838000       22.8139887100
  H        21.7148113100       23.5355116100       23.1015935400
  O        21.0300478800       22.8969788400       22.8547409500
       3
 i =        1, time =        0.000, E =       -17.2002525204
  H        21.8628290600       23.4422318200       23.3980732000
  H        20.4432108000       22.6835170500       23.7948484800
  O        21.2329198700       22.7432947100       23.1266542100
       3
 i =        1, time =        0.000, E =       -17.2035470403
  H        20.5238244400       23.9531146300       23.6196513600
  H        21.3677243100       22.6521127700       23.6055782000
  O        20.6940513600       23.1390666200       23.1384156900
       3
 i =        1, time =        0.000, E =       -17.2038428005
  H        21.2737165400       22.7470784400       22.4618001300
  H        20.1064882900       22.3929895500       23.4757685700
  O        20.9948719200       22.8058304300       23.4269093600
       3
 i =        1, time =        0.000, E =       -17.2008965257
  H        20.3777192900       22.1989155600       23.6131828100
  H        21.2458072900       22.4224661200       22.3957632000
  O        21.0024670200       22.8273404200       23.3101211800
       3
 i =        1, time =        0.000, E =       -17.2043639101
  H        21.7596162600       22.0761462100       23.2116416600
  H        20.6365521900       22.7771902200       23.8459030500
  O        21.1899297900       22.8495787400       23.0513121800
       3
 i =        1, time =        0.000, E =       -17.2049658160
  H        21.6413093000       23.2112586000       23.8128639700
  H        21.1588516400       22.7100710400       22.4661365900
  O        21.0949189500       22.5093822600       23.4125271100
       3
 i =        1, time =        0.000, E =       -17.2042945856
  H        20.7816626300       22.1916274100       22.4607369100
  H        21.7183469100       22.3557569000       23.6325433400
  O        20.8679638000       22.7340616800       23.2683751800
       3
 i =        1, time =        0.000, E =       -17.2007019974
  H        21.2027774200       23.5541211300       24.0153891900
  H        20.2240812100       23.2439241000       22.7614138000
  O        21.1038197900       23.1499219800       23.1692562500
       3
 i =        1, time =        0.000, E =       -17.2046660056
  H        21.7372281800       22.9000580400       23.8079360000
  H        21.0381259400       23.1074235100       22.4905417800
  O        20.8990807000       22.7091560000       23.3607109100
       3
 i =        1, time =        0.000, E =       -17.2044681257
  H        21.8090993100       23.4679567600       23.4660123300
  H        20.3321710800       23.5567213400       23.1711812500
  O        21.0737474700       22.9527779000       23.0956479600
       3
 i =        1, time =        0.000, E =       -17.2015602875
  H        21.7663062400       22.6388172700       22.6450218000
  H        20.4299761400       22.4604813600       23.5558811900
  O        20.9523368600       23.1247963700       23.0577729900
       3
 i =        1, time =        0.000, E =       -17.2045421897
  H        21.5052434100       23.1328057300       22.4262953000
  H        21.0658317500       21.8681490600       23.0945612100
  O        21.0745352700       22.8348164800       23.2349426200
       3
 i =        1, time =        0.000, E =       -17.2031812309
  H        21.5952962200       22.2835384900       23.9737732600
  H        20.6560630800       22.5660613700       22.8629590500
  O        20.9430793000       22.9833020900       23.6684550000
       3
 i =        1, time =        0.000, E =       -17.2018506437
  H        20.9335282300       22.2780631000       22.7129076600
  H        22.2243678400       23.2377751700       22.7733055700
  O        21.3409018600       22.9885021100       23.2503313200
       3
 i =        1, time =        0.000, E =       -17.2047143242
  H        21.5165207800       23.5711445000       22.8972472800
  H        21.1832801600       22.0845201400       23.0086916200
  O        21.3045438800       22.8810182700       23.5396602400
       3
 i =        1, time =        0.000, E =       -17.2012129530
  H        21.2984439000       22.7660408700       22.4409090100
  H        21.6842373700       23.1811157800       23.9109409300
  O        20.9049521100       22.7667257800       23.3460403400
       3
 i =        1, time =        0.000, E =       -17.2036541127
  H        20.1766998700       22.8128743800       23.0957661100
  H        21.3238328100       21.7687919500       23.4539405500
  O        21.1220108600       22.7491801400       23.3254274700
       3
 i =        1, time =        0.000, E =       -17.2001814748
  H        21.5246845300       23.4480583500       23.3507913700
  H        21.6375472900       22.0397589400       22.9393416900
  O        21.0173172700       22.6920890600       23.3417816300
       3
 i =        1, time =        0.000, E =       -17.2009828569
  H        20.5660953000       23.1148939200       22.6357501600
  H        20.6254692100       23.0644451400       24.0707858400
  O        21.1414770700       22.6485204700       23.3155466000
       3
 i =        1, time =        0.000, E =       -17.2045787903
  H        21.0491848100       22.4929155300       24.2465315300
  H        20.2231504300       22.8050514600       22.9632350600
  O        21.1363881900       22.7040503800       23.2838410900
       3
 i =        1, time =        0.000, E =       -17.2016795137
  H        20.4928752200       22.2696384400       22.7046893500
  H        20.8486067600       22.2202085800       24.0948634700
  O        21.1320316800       22.7549651200       23.3096861800
       3
 i =        1, time =        0.000, E =       -17.2010698229
  H        21.8288751700       22.4998556900       23.9137557100
  H        21.4979574700       23.1534552600       22.5576633500
  O        21.0069467700       22.6816623100       23.3303599000
       3
 i =        1, time =        0.000, E =       -17.2027616612
  H        21.4353363100       23.1438935000       22.5771324500
  H        20.7363397300       23.3904346000       23.8002269600
  O        21.0797261800       22.6261547600       23.3362860200
       3
 i =        1, time =        0.000, E =       -17.2017909849
  H        21.4048365200       23.5186466900       23.1497195200
  H        21.4169841100       22.4462853600       24.1141372100
  O        21.0387645100       22.6620289500       23.2804332000
       3
 i =        1, time =        0.000, E =       -17.2009389676
  H        20.6987841700       23.5147037800       23.0790559400
  H        20.3211816200       22.3283004200       23.7051318800
  O        21.1522884600       22.6697108900       23.3106542300
       3
 i =        1, time =        0.000, E =       -17.2034382077
  H        21.8274380700       22.6536154900       22.7681666100
  H        20.7852617900       23.6214636100       23.2947545800
  O        21.0519399400       22.6424884700       23.3560968700
       3
 i =        1, time =        0.000, E =       -17.2039111295
  H        21.2600965200       22.1501207900       22.5785867700
  H        21.3860540800       22.3365035300       24.0995034900
  O        21.0498324100       22.7551681600       23.3173388000
       3
 i =        1, time =        0.000, E =       -17.2038864826
  H        21.9813730000       22.7772523600       23.2267909900
  H        20.7711519400       23.3734836400       23.9077918100
  O        21.0431304100       22.6503225700       23.2885779700
       3
 i =        1, time =        0.000, E =       -17.2005522442
  H        21.6059495900       22.4712799700       24.0560017000
  H        20.2757766400       23.1144055100       23.4245032600
  O        21.0979941600       22.6859229800       23.2667835100
       3
 i =        1, time =        0.000, E =       -17.2032851507
  H        21.5971663800       23.3000478700       22.7775354800
  H        20.9635303500       22.9666293900       24.2282150500
  O        21.0552163500       22.6430178100       23.2966949100
       3
 i =        1, time =        0.000, E =       -17.2018986537
  H        21.1922440800       21.8430462700       22.9757682100
  H        20.2108765600       22.8407121700       23.1162554100
  O        21.1281482000       22.7427479300       23.3542633000
       3
 i =        1, time =        0.000, E =       -17.2043342203
  H        21.1073948900       23.5665608100       22.9111080700
  H        20.2766577300       22.2626070500       23.1260876300
  O        21.1293495600       22.6705826300       23.3577176800
       3
 i =        1, time =        0.000, E =       -17.2000291191
  H        22.0515149000       22.9499501800       23.3575989100
  H        20.6397517500       22.6722523800       24.1387878500
  O        21.0469899300       22.6836222600       23.2657828900
       3
 i =        1, time =        0.000, E =       -17.2032396907
  H        21.2601844800       23.2592647200       24.0504991000
  H        20.3130103700       22.2472356900       23.6274035300
  O        21.1174328500       22.6909119500       23.2543466800
       3
 i =        1, time =        0.000, E =       -17.2045183464
  H        21.2879555900       23.2257385500       24.0864253300
  H        20.2895702100       22.2026524300       23.5085746700
  O        21.1171599900       22.6958331500       23.2595698700
       3
 i =        1, time =        0.000, E =       -17.2026424380
  H        20.7439619400       23.0103646300       22.5262508100
  H        20.6614199500       21.9625263500       23.6883288000
  O        21.1280057300       22.7245314500       23.3465417900
       3
 i =        1, time =        0.000, E =       -17.2033973510
  H        21.8599736200       22.8116794600       22.8185561700
  H        21.3907229700       22.8651383900       24.1982334600
  O        21.0117436400       22.6801812800       23.2959994000
       3
 i =        1, time =        0.000, E =       -17.2029911947
  H        21.8634280500       23.2475286200       23.2497039100
  H        20.7564825500       22.5208497500       24.1881848900
  O        21.0514856400       22.6744126100       23.2694685000
       3
 i =        1, time =        0.000, E =       -17.2044852087
  H        21.6012212300       22.6476149800       22.5469555800
  H        20.4666932300       23.4269319500       23.2503632800
  O        21.0862635700       22.6551227800       23.3728308600
       3
 i =        1, time =        0.000, E =       -17.2041604893
  H        21.7882517200       22.7061491300       22.6807300600
  H        21.3066531200       23.2416025600       24.0793147300
  O        21.0215591300       22.6631113800       23.3121753400
       3
 i =        1, time =        0.000, E =       -17.2041532273
  H        21.5672812700       21.9597270400       23.6838479900
  H        20.8214328500       23.2214055000       24.0389711900
  O        21.0660519300       22.7114114100       23.2515167600
       3
 i =        1, time =        0.000, E =       -17.2043542204
  H        21.4111457800       23.5130500100       23.0589163800
  H        21.4200019700       22.5250753900       24.1664616100
  O        21.0381768700       22.6574174800       23.2828575100
       3
 i =        1, time =        0.000, E =       -17.2030790974
  H        21.7862744300       22.6613289600       22.6499389400
  H        21.3180388100       22.3247956200       24.1497646400
  O        21.0209663600       22.7236976800       23.3096766800
       3
 i =        1, time =        0.000, E =       -17.2039683177
  H        20.5836818500       23.0322019200       24.0017615900
  H        21.2803639100       21.8015256700       23.4981351600
  O        21.0991081000       22.7332992900       23.2655617500
       3
 i =        1, time =        0.000, E =       -17.2029324712
  H        21.6938436600       22.7525484500       23.9741073200
  H        21.3639761700       23.3183727400       22.6712338200
  O        21.0238956300       22.6553512200       23.3194021200
       3
 i =        1, time =        0.000, E =       -17.2047404947
  H        21.6436407500       23.2776108300       22.8598101800
  H        20.2562502600       23.1350704600       23.4874475500
  O        21.0968497100       22.6338189900       23.3381825500
       3
 i =        1, time =        0.000, E =       -17.2035332788
  H        21.5525404100       23.2966969500       22.7561873700
  H        21.4498424100       22.5398935400       24.1677634900
  O        21.0273883800       22.6701149700       23.3018486100
       3
 i =        1, time =        0.000, E =       -17.2041265374
  H        22.0269840900       22.7417924800       23.4355994100
  H        20.6427167200       23.3313764500       23.8286985800
  O        21.0483486600       22.6552096000       23.2804054000
       3
 i =        1, time =        0.000, E =       -17.2041342514
  H        21.7981204600       22.9912631900       23.8358351200
  H        20.6084258000       23.4862927700       23.1171760800
  O        21.0649284300       22.6297316300       23.3000176900
       3
 i =        1, time =        0.000, E =       -17.2042185049
  H        21.6317219300       23.3984285100       23.0952570300
  H        20.3950735000       22.6272867400       22.6597893800
  O        21.0888542300       22.6581993700       23.3754941900
       3
 i =        1, time =        0.000, E =       -17.2039692708
  H        21.8970648100       22.3799185000       23.6206486300
  H        20.8975934700       22.4906397500       22.4101525700
  O        21.0404758500       22.7309788100       23.3581205600
       3
 i =        1, time =        0.000, E =       -17.2041879519
  H        21.3743098600       23.5908928700       23.3197234200
  H        20.7919286700       22.5390028600       24.2089748100
  O        21.0800687700       22.6516355900       23.2637471500
       3
 i =        1, time =        0.000, E =       -17.2017147481
  H        21.7747510200       23.2675683400       23.5204115800
  H        20.3189018900       23.0540757000       23.6010698800
  O        21.0846419400       22.6395546900       23.2894034100
       3
 i =        1, time =        0.000, E =       -17.2045757660
  H        21.6565475500       23.3840297000       23.0760957000
  H        20.9703690700       22.7653071600       24.2480567100
  O        21.0510442300       22.6504107200       23.2766343400
       3
 i =        1, time =        0.000, E =       -17.2045583989
  H        21.4783104900       21.8641825000       23.1814754800
  H        20.6189284900       22.6587470000       24.1156600300
  O        21.0844160100       22.7528807900       23.2783365100
       3
 i =        1, time =        0.000, E =       -17.2047321952
  H        20.9361658300       23.5980182200       23.5652596800
  H        22.0009720200       22.5007932500       23.4024179100
  O        21.0314990700       22.6535940200       23.2990936500
       3
 i =        1, time =        0.000, E =       -17.2013320333
  H        21.2294706600       23.6630823800       23.1089074600
  H        21.0820471700       22.5402111600       24.2459840600
  O        21.0709156000       22.6470112400       23.2746976500
       3
 i =        1, time =        0.000, E =       -17.2042185000
  H        21.7561716000       23.1946803800       22.9234052500
  H        20.9447484500       22.9037091700       24.2295109100
  O        21.0463817200       22.6536206000       23.2874229000
       3
 i =        1, time =        0.000, E =       -17.2037188526
  H        21.0570445900       22.2545030200       22.5019887500
  H        20.2972123700       23.2587018600       23.4377166200
  O        21.1312268000       22.6904895400       23.3638599500
       3
 i =        1, time =        0.000, E =       -17.2028228324
  H        21.6897885000       22.4769595000       23.9846700700
  H        20.3879507900       22.1348520700       23.3787957900
  O        21.0856445700       22.7472808700       23.2741574300
       3
 i =        1, time =        0.000, E =       -17.2038441739
  H        21.7988488300       23.3015141100       23.2132174700
  H        21.1795349400       22.1956391600       24.1438943400
  O        21.0289004200       22.6915008600       23.2745577600
       3
 i =        1, time =        0.000, E =       -17.2034730528
  H        21.7548598000       23.1805895600       22.8906733000
  H        21.0216390700       22.8313012200       24.2686428600
  O        21.0416199600       22.6590703700       23.2870196700
       3
 i =        1, time =        0.000, E =       -17.2007923238
  H        21.7608716100       22.0510138300       23.3240292200
  H        21.4256745800       23.2484124800       23.9498452300
  O        21.0157853600       22.7039584300       23.2798020500
       3
 i =        1, time =        0.000, E =       -17.2041679487
  H        21.2821212600       23.5127456900       22.8534446300
  H        21.8951956800       22.2154127800       23.4731344500
  O        21.0163668400       22.6769466200       23.3394853900
       3
 i =        1, time =        0.000, E =       -17.2045795716
  H        20.9444318900       23.6173011300       23.1428120100
  H        20.2524701500       22.3356495500       23.6092456200
  O        21.1411407800       22.6627838300       23.3126785600
       3
 i =        1, time =        0.000, E =       -17.2028831775
  H        21.5840813700       22.5038555000       24.0566126900
  H        21.5473893600       22.3571643500       22.5359328100
  O        21.0192553400       22.7315797700       23.3227284500
       3
 i =        1, time =        0.000, E =       -17.2031633700
  H        21.2927363100       22.3059635800       22.4720921000
  H        21.6667837500       22.3872701000       23.9321855700
  O        21.0300889000       22.7421509600       23.3345900700
       3
 i =        1, time =        0.000, E =       -17.2025681793
  H        21.8089853400       23.0652173100       23.7069418000
  H        20.3749890100       23.2887310400       23.1701896900
  O        21.0789513400       22.6375193900       23.3047984200
       3
 i =        1, time =        0.000, E =       -17.2018103668
  H        20.3067291900       23.0594675500       23.7659054400
  H        21.4391281900       21.9407358800       23.6737574800
  O        21.1065544300       22.7228106500       23.2693567200
       3
 i =        1, time =        0.000, E =       -17.2048843023
  H        21.2127157100       22.5949993400       22.3962356800
  H        20.4022738200       23.3363495000       23.4556412800
  O        21.1147996200       22.6641448300       23.3693934900
       3
 i =        1, time =        0.000, E =       -17.2026387489
  H        20.9235058800       23.4749126700       22.8163895100
  H        20.9412688300       22.9700443100       24.1662290900
  O        21.0990621700       22.6317854900       23.2981523100
       3
 i =        1, time =        0.000, E =       -17.2048497568
  H        21.1324073800       22.7240418000       22.3928700700
  H        21.8521642500       23.1143651500       23.6638708200
  O        21.0285105600       22.6700005300       23.3564862500
       3
 i =        1, time =        0.000, E =       -17.2042488888
  H        20.4792779400       23.3801146200       23.6337069500
  H        21.1967915500       22.0837790400       24.0002138000
  O        21.1109513500       22.6935963400       23.2571177100
       3
 i =        1, time =        0.000, E =       -17.2039327250
  H        21.4381976500       23.1491730400       22.9518704700
  H        21.0630883800       21.8416584000       23.6404394900
  O        21.2347754300       22.8079098300       23.8182991100
       3