      54
 i =        1, time =        0.000, E =      -309.9439919268
  H        18.6548472300       17.8835815400       17.4364405500
  H        20.2637716100       18.7676321100       18.2362141000
  H        21.2639491900       18.6147564100       17.0195826800
  H        18.1461911100       16.8442422600       21.5927627200
  H        17.1477633900       17.8370122700       20.8177897000
  H        18.2035713700       23.7262458600       21.0562612600
  H        19.3524378300       24.3469948800       20.2654571600
  H        16.6414290100       17.6807245900       18.6751549800
  H        15.7226797200       18.5970866000       19.5781076600
  H        21.1889822000       24.9112774400       21.2190653300
  H        21.2481750900       23.9584647300       19.9941787000
  H        20.6141780700       20.5399595600       22.2065415800
  H        20.5448331600       20.2712730600       20.6458134200
  H        17.9420238000       20.9437563800       15.7880269200
  H        17.3967390000       21.5569346200       17.1037150800
  H        24.3246441700       18.5761668900       19.3969954200
  H        22.7930944900       18.9519458300       19.3032943500
  H        18.7605394900       19.0438585400       22.4227804100
  H        19.2045959300       18.9997369700       23.8987284700
  H        16.5262098100       23.5591934900       17.8697052700
  H        17.7428970000       23.5037234900       18.9147068000
  H        23.5110029800       19.9727137600       17.4840704900
  H        23.4598427500       19.6111343200       16.0328699900
  H        18.8211654600       19.9117768900       19.4992357300
  H        19.3002568900       18.5579024600       20.0534865500
  H        23.9412551400       16.1724925300       21.1508722900
  H        23.0825678700       15.9646833900       19.8740347100
  H        19.7709207400       21.8806987300       21.5394199400
  H        18.7189167400       21.8517918400       22.7239235300
  H        22.0897095600       21.9744246700       18.4753107100
  H        21.6085194600       21.8248458600       19.9953957300
  H        20.8351960000       15.0663159500       18.8998345600
  H        21.2124815300       16.5422772000       18.2074051000
  H        17.5271766900       21.0874789000       20.6429169800
  H        17.1099037700       21.2616783400       19.0967474300
  H        17.5765934000       18.8276690700       17.0069968300
  O        17.6718067200       17.8855245600       17.1715173000
  O        20.6161933400       18.1101969000       17.5634224000
  O        18.0823216900       17.7900625800       21.3600210000
  O        18.3334602500       24.1575314000       20.1687543500
  O        16.2149116100       17.7538233500       19.5001446400
  O        20.8154187000       24.7867985900       20.3387752800
  O        20.9623693500       20.9024414100       21.3468660700
  O        17.2767085300       20.7935502100       16.4394498800
  O        23.6936307000       19.2081422300       18.9989144000
  O        19.2148127200       19.5671941600       23.1132824400
  O        17.3182992800       23.0368337500       18.0633347800
  O        22.9003933800       20.0568031000       16.7160901000
  O        19.6920452100       19.3815865200       19.6668283700
  O        23.7498274900       16.5533500800       20.3215713500
  O        18.7420768600       22.0725362500       21.7835574700
  O        21.8225856500       22.4659977100       19.2694406500
  O        21.4845790600       15.7561832900       18.8057689700
  O        17.3362586600       20.6060647600       19.7921864600
      54
 i =        1, time =        0.000, E =      -309.9365801790
  H        17.5155368100       17.0908144700       17.6946337200
  H        20.0776527400       20.0523321200       15.9796072200
  H        20.4731000200       19.9073701500       17.5214117400
  H        16.9926043900       16.8336240300       21.9561041200
  H        17.6064271000       17.7903542900       20.9341791700
  H        19.5518028000       22.2118668100       21.1817085600
  H        20.1730512400       23.1207262400       20.0292043300
  H        17.2261842500       19.0638946200       18.6265769700
  H        16.7794403600       19.6972247900       20.0264397300
  H        21.5048936000       24.7217585300       18.8481632500
  H        22.1712079600       23.4799736600       19.5951231700
  H        21.3150882200       19.7035177500       21.8225726200
  H        21.3832470700       20.0190447300       20.2579140600
  H        16.4838626100       20.7134455700       17.1301050700
  H        17.0900171200       21.7670566500       16.0611303200
  H        23.5961834500       19.3436571000       20.2746646100
  H        23.2610925000       18.0814433600       19.7012147600
  H        19.3567919000       18.2025582600       22.2550772400
  H        19.9230578400       18.5779254200       23.5590280100
  H        17.2327501500       22.4041774000       18.2628847500
  H        17.8367687800       23.2951022000       19.3300312900
  H        23.8227608600       19.9026786200       18.0816608200
  H        22.5945139300       20.3492265500       17.0447816100
  H        19.8966421800       21.1559066600       19.3124155000
  H        19.2966204800       19.7193194600       19.4070847000
  H        20.7511823600       17.2088389500       20.1305809600
  H        21.1888863200       16.9345423600       18.6422968700
  H        18.7640678300       20.0984248000       22.6751632300
  H        18.2239346100       21.0617350400       23.7716148200
  H        23.6157086300       21.9150820900       18.9140098900
  H        23.3515459900       21.6785005900       20.4349350500
  H        20.7802763400       15.9676474100       16.6422989200
  H        20.2038464700       17.4290286800       16.6770039100
  H        16.4963130900       21.2213438600       21.6452154700
  H        16.2527689400       21.9693932800       20.2647575800
  H        16.0691537800       16.7536125200       17.3678428700
  O        16.6984217100       17.5036301400       17.2777841000
  O        20.7522648900       19.6926860100       16.5531653100
  O        17.8869801400       17.1315365700       21.6186343000
  O        19.4137195800       22.4893550800       20.2543760500
  O        17.4402269300       19.0626608400       19.6276470500
  O        21.3843729200       24.1061901100       19.6436717400
  O        21.8545983600       20.1773884700       21.1289326000
  O        17.3193213900       21.1514221200       16.7542081100
  O        23.9402757700       18.7694212900       19.5977151100
  O        19.9679013700       18.8543401100       22.6493925600
  O        16.9665393100       23.1210753400       18.8560481700
  O        23.4814010700       20.6134571900       17.5123040900
  O        20.0061893000       20.2411886000       19.0474616600
  O        21.5039967200       17.0983952400       19.5367572000
  O        18.0256845400       20.7936110000       22.8827854800
  O        23.3357634500       22.3734876800       19.7248844300
  O        20.1587466700       16.5995670800       17.1317714000
  O        16.0048833800       21.1165047000       20.7524522300
      54
 i =        1, time =        0.000, E =      -309.9502521029
  H        17.5614469700       16.5228184000       16.9598003900
  H        21.0624599800       21.0670599200       18.1109333300
  H        22.4669696200       21.1018978000       17.4992091900
  H        18.3007780100       15.8772325000       21.3504424500
  H        17.6653771200       17.1576931600       20.6291498700
  H        18.6434759500       24.4928250500       19.5916999200
  H        20.0739008800       23.8366468800       19.2454703100
  H        16.4730583600       17.6018330900       18.9715068800
  H        16.5472605800       18.9302965400       19.8764879000
  H        21.6867929300       23.6235450600       18.2066225500
  H        22.1620680300       23.5554116900       19.6533038400
  H        20.4577434500       19.7337309400       22.1826571000
  H        20.3044437600       20.3134982500       20.7998801700
  H        20.1937665100       21.0660795900       16.1351658900
  H        18.7894477100       20.5512274400       16.6207640600
  H        22.7371099900       18.7285402300       21.6072452600
  H        22.1144047700       17.9130538400       20.5156247000
  H        18.8911136900       18.0261788300       22.2550187300
  H        18.2902342600       18.8733729800       23.3490655000
  H        17.2808261000       22.3792571500       16.8063529800
  H        18.1948400900       22.9679237400       18.0325567800
  H        23.6208224700       19.1676182700       19.5070481800
  H        24.0139728500       20.4356045100       19.1413699300
  H        18.7569821400       20.4652181400       18.9278170800
  H        19.7854939100       19.2806695500       19.2559874600
  H        20.4729077100       17.3472365500       18.9866993700
  H        19.6275625100       17.2021559900       20.3556300400
  H        18.3177495300       22.6828157000       21.0681332500
  H        18.5851856400       21.3996853600       22.0223640100
  H        23.3326426300       22.3729898700       21.1498681300
  H        22.0309218100       21.5051566100       21.0298153100
  H        20.7687935100       17.1336688700       16.4579068900
  H        20.1335875500       18.5931341000       16.6796969800
  H        17.1770070700       21.0094182500       20.5833162600
  H        16.6003728700       21.2671890100       19.1827984800
  H        18.5441845900       16.7130892700       18.1214014100
  O        17.5804446800       16.4970660000       17.9416117600
  O        21.5701530000       21.5158256600       17.4291057000
  O        18.4258589600       16.7596243100       21.1871142400
  O        19.0588911300       23.6305859700       19.2838743600
  O        16.4139196200       17.9417629100       19.9369892200
  O        21.6939007200       24.2032651000       19.0356039700
  O        20.8361406200       20.4845679600       21.6544639000
  O        19.4590981200       20.3956017800       15.9728138200
  O        23.0304489200       18.1058526300       20.8430445300
  O        18.9150644800       18.9486704000       22.6532555000
  O        17.3208053600       22.4326423200       17.8096954400
  O        23.5910714700       19.6818960700       18.6553181100
  O        19.7164311700       20.3239601500       19.2292244000
  O        20.4035770000       17.7220823100       19.8954745000
  O        17.8827620300       22.0386081200       21.6840583000
  O        22.8349417900       21.8761988800       20.4945694100
  O        20.3468115900       17.7198053000       17.1299122900
  O        16.8841322400       20.5263807100       19.7888762700
      54
 i =        1, time =        0.000, E =      -309.9679478243
  H        17.5036902900       17.5332435300       15.5190622500
  H        22.2290075600       20.8330500900       17.0015793200
  H        21.0013547400       20.9751028600       16.0296594800
  H        19.5012276900       17.0828234100       20.8730792800
  H        17.9389376400       16.9603035100       20.9489982600
  H        18.1506538100       22.6808375900       20.8872216300
  H        19.0577861200       23.7518995200       20.0343470700
  H        16.9038057600       17.3991556200       18.2649617100
  H        16.4576845200       18.5190239700       19.3319061100
  H        20.8471748600       25.0883099800       20.2292890800
  H        21.6407478900       23.7725003600       19.9810751400
  H        20.8729365400       19.9638419800       22.2611390100
  H        21.0958548300       20.5353817300       20.8966266900
  H        19.3000278200       20.2505552500       17.6080300300
  H        18.1007754200       20.7838267000       16.8572403400
  H        22.3936045800       17.8991873800       20.1526153000
  H        22.9058975600       18.8966696400       21.2470961000
  H        18.7969220100       19.0509531300       23.9035274800
  H        18.9672660300       18.3770457200       22.5274387300
  H        16.2947348800       22.3948176600       17.4767640400
  H        17.4086478200       22.3910939900       18.5639956300
  H        23.3092188600       19.7609656200       19.1768995700
  H        24.3472516700       20.4051056400       18.1232432000
  H        19.2590092800       19.9667951800       19.6654826000
  H        19.4864516900       21.5309608300       19.5729925600
  H        21.0957069200       16.0420068300       19.5105282000
  H        20.9001545000       17.4413877400       18.9747846300
  H        16.2680624300       21.2922614300       22.8462664900
  H        17.7198578200       20.7074530700       22.9430603000
  H        23.3372390700       22.0844644100       19.5258875400
  H        22.5647412200       22.2214298000       20.9137624600
  H        20.2134721000       17.8039167500       16.8552580600
  H        21.2607797000       18.9260164300       16.9369057700
  H        16.5786994300       20.7917800800       20.7525791700
  H        16.4293488400       20.7727149300       19.1728345400
  H        17.9686501000       18.5782162500       16.5572494300
  O        17.9770910700       17.6095568500       16.3800324000
  O        21.8436844300       20.4879250200       16.1718011100
  O        18.8078250400       16.9195607500       21.5314654100
  O        18.3539286200       23.0161713700       19.9911286700
  O        16.7706079600       17.5692785100       19.2747331800
  O        20.7758304900       24.2805326700       19.6954613500
  O        21.5748436200       20.4654756700       21.7685014600
  O        18.8451537400       20.0946346300       16.7249681100
  O        23.1386506000       18.5270571300       20.3529431800
  O        19.1771944200       19.2431036800       23.0118218100
  O        16.9283769400       21.7753570200       17.8785551600
  O        23.4616850500       20.5820915300       18.4670494200
  O        19.9151136400       20.6662323700       19.4028583600
  O        20.9779474500       17.0034341600       19.8395576800
  O        17.2055009400       21.4827593500       22.5769413500
  O        22.9886229500       22.7602031100       20.2173691000
  O        21.1148016400       17.9370513400       17.2880415200
  O        16.3317827100       20.2220937900       19.9727331900
      54
 i =        1, time =        0.000, E =      -309.9582094020
  H        18.7672125800       17.8903550100       17.6514869200
  H        20.5864842100       20.0064170500       17.6969428500
  H        21.9345764400       19.6074329100       16.8966836500
  H        19.5709181400       16.8269968000       21.8167766900
  H        17.9469106200       17.1857119600       21.6741708600
  H        18.3597771800       22.3263663900       21.4445996000
  H        18.7841441700       22.7243834600       19.8989449000
  H        16.8777985400       17.5104373900       19.4957366800
  H        16.3522069500       18.5622946900       20.5410819700
  H        20.6147674000       24.3765265800       19.1245355100
  H        20.9915350800       22.9956984500       18.7484153800
  H        20.7031937300       21.7665016100       21.8666985700
  H        21.0097514500       20.3171091100       22.1338396300
  H        18.1582319400       20.4893979300       15.8694672800
  H        17.6942811300       21.5367127800       16.8631491700
  H        23.0652394700       19.8081161400       20.4597848000
  H        22.7225387400       18.3554751300       19.9729716400
  H        19.5092270900       18.5810962700       23.1070826100
  H        20.1159438300       19.0171904200       24.4000642100
  H        18.0821085900       23.9941623900       16.1696758400
  H        18.7995672100       23.5626500400       17.4973965000
  H        23.8169522000       19.5511784300       18.3185624900
  H        24.6180737000       20.0697827600       16.8935601300
  H        20.0527925600       20.6676601600       19.8580065900
  H        18.8066894900       20.4036226900       19.0300101900
  H        20.6313126000       18.0551818500       19.9026930300
  H        21.0872331200       17.0669164900       18.7596488800
  H        18.2241522200       21.8482158200       23.9017990400
  H        18.9751036300       20.6880713800       23.0924524000
  H        23.1017741600       21.7312014700       18.3883534500
  H        22.3732767000       21.5882506400       19.8135661800
  H        20.5867391600       16.3349502700       16.7541323600
  H        20.7124502100       18.0252943600       16.9397237100
  H        16.9936603400       21.2547373900       20.1316675100
  H        16.6455768000       20.7618694600       18.7191725300
  H        17.4934869800       18.6921871500       17.4048867600
  O        17.8281971800       17.8865215500       17.9180310800
  O        20.9274345100       19.5329653800       16.8579852200
  O        18.7713412500       17.2212499000       22.3214457200
  O        17.9925407700       22.6131858100       20.5445206000
  O        16.5398087100       17.5723713800       20.4643421200
  O        20.1957353600       23.6222171700       18.6551359100
  O        21.3498323700       21.0487097400       21.5741687600
  O        17.5952125800       20.5715678700       16.6531347800
  O        23.4124956900       19.0910088400       19.8923007600
  O        20.0469526400       19.3223010200       23.4820213700
  O        18.0685797200       23.3598039300       16.8889645100
  O        23.7424050400       19.9476131200       17.3316083300
  O        19.6872720900       20.0316844800       19.2258365300
  O        21.2223009200       17.3128710900       19.7340854300
  O        18.6893773900       21.6965389400       23.0533286600
  O        22.4957027600       22.1680696800       19.0186862200
  O        20.5616393900       17.1091919200       17.3504267300
  O        16.6423134200       20.4895958800       19.6357389600
      54
 i =        1, time =        0.000, E =      -309.9037636839
  H        18.3062836800       17.7316426200       18.5369751200
  H        21.2253900500       19.9232326400       18.0193517300
  H        21.5427375900       21.4100752800       17.9195766900
  H        15.9406549700       16.4975460200       22.5349805600
  H        15.9867974500       17.5184464900       21.2686520500
  H        20.0111051300       24.2635083500       16.6560036400
  H        20.7061343900       24.1785660400       18.0880533900
  H        16.1532287700       17.6042477800       19.2642832100
  H        15.5162191700       18.9329050300       19.6868508100
  H        21.9323686600       24.8860789900       19.5619862800
  H        22.2132944400       23.3559569800       19.3930191200
  H        20.8357482600       20.2260656500       22.1989765200
  H        20.2283205700       21.5988758300       22.4760911000
  H        17.8893703300       20.2428023100       16.6750325100
  H        19.0355736100       19.5646712900       15.8262054900
  H        24.5842890000       18.7784134500       19.8443176900
  H        23.0070521900       18.2992354700       19.2361119100
  H        17.6312551600       18.2554137100       23.1121998700
  H        17.9549540500       17.8001912900       24.5023931700
  H        19.2944840000       21.5059809400       18.0124538500
  H        18.4544586900       22.8564804100       17.8933989000
  H        23.7157277700       19.9123119700       17.9917226400
  H        23.7801482800       21.2099894800       16.9700855400
  H        18.8257730800       19.2711383500       20.6258577900
  H        19.3826521300       18.0948320600       21.5895511800
  H        21.0696937100       17.7233338100       19.0974063200
  H        21.4363980700       17.6597485600       17.5301146300
  H        17.6085763200       21.5361834600       23.2869069900
  H        18.4655867700       20.2541016900       23.0083091500
  H        23.1695688600       21.0528419600       20.0926785300
  H        22.0798654800       21.6939653500       21.0308960400
  H        21.2518067700       17.8761928600       15.1659449100
  H        22.1796670500       18.8635833100       16.0193240400
  H        17.1485643200       20.9902236300       20.7314654700
  H        17.5165170600       20.7899807300       19.2862835100
  H        17.7478955100       17.9303258600       17.0719080400
  O        17.4858822500       17.6613820100       18.0162312100
  O        20.7784327700       20.7969159600       18.1997769400
  O        16.2608279200       17.3821675400       22.2308840400
  O        19.8113591500       24.2307514100       17.5933530100
  O        15.4220425100       17.9658629100       19.8162269600
  O        22.0934136700       24.2161749000       18.9002120100
  O        21.1079180500       21.1090681700       22.5292233500
  O        18.1270552300       19.3548015900       16.1746928600
  O        23.6327807100       18.9907544800       19.7112104800
  O        18.0928346500       18.5960167400       23.9252129500
  O        18.3888046400       21.9030555500       17.8604105500
  O        23.2553372700       20.4240317800       17.3500628400
  O        19.6317986600       18.6503894900       20.7498332500
  O        21.8444247800       17.8617512000       18.4477705400
  O        18.3478541700       21.2619527700       22.6983908400
  O        22.7275098800       21.9690051100       20.2753280200
  O        21.4785432900       18.1776462400       16.0843837700
  O        17.3413900500       20.2908921600       20.1036016000
      54
 i =        1, time =        0.000, E =      -309.9338035411
  H        17.0675905800       17.8673192100       17.4831231900
  H        21.0164529600       20.1614614100       18.3303089400
  H        21.9330861300       19.6985132200       17.2274549800
  H        17.6563169100       18.4065716500       22.8166819400
  H        18.5792002400       18.6632063100       21.5830594700
  H        18.7508196200       23.4300932600       20.3659241500
  H        19.4110238600       24.3047854200       19.3964264800
  H        15.9540529000       17.9333188000       19.9062040100
  H        16.1267361800       19.3195974600       19.3137100500
  H        21.3181808100       25.1670276500       20.9653561600
  H        21.2363900400       23.9001349300       19.9409189600
  H        21.3185863300       19.8469306300       22.2509670700
  H        20.1902822000       19.9903807800       21.0577848200
  H        19.4977843700       20.2901638900       15.9056245800
  H        18.2093303200       21.1009256600       16.4649759300
  H        23.7944753500       17.3689422400       20.8941656300
  H        22.4355231500       17.7476433700       20.3558936600
  H        20.0517203400       18.0574786600       23.2608796400
  H        21.5731420400       17.9019151000       23.6033706000
  H        16.8112124500       22.7526478800       17.4212058400
  H        17.9872598100       22.6019303100       18.3965320300
  H        23.5355506900       18.8177332600       18.8289555200
  H        24.3217132900       18.6225951700       17.4757602900
  H        18.1920151300       18.7460710300       19.7316303900
  H        19.7736273900       18.3525723800       19.9390790000
  H        20.8122258600       15.9785856400       19.8744065400
  H        20.7085442300       16.7617630900       18.5226999100
  H        20.2889987700       22.0594128700       22.0845916200
  H        19.3331746600       22.9634518800       23.0705394600
  H        22.3185571900       21.7485982700       19.0642973900
  H        21.8407826100       21.8520838700       20.5604970700
  H        19.1946930900       17.5364239800       16.9635522100
  H        20.5175893700       18.2777498500       17.2688787900
  H        16.0209004900       21.4922821200       21.0430964000
  H        16.3980079600       21.6175065100       19.5021107800
  H        17.6655067200       18.7439305400       16.4363381200
  O        17.5940144600       17.8048428600       16.6930253600
  O        21.0422868700       20.0972843800       17.3333915400
  O        18.3424680300       17.9713065900       22.2922165200
  O        18.6482193600       23.5924607900       19.3938573700
  O        16.5086191000       18.3804536500       19.2578827800
  O        20.9722797000       24.8999858700       20.0657312300
  O        20.9075255600       20.4492963900       21.6077659400
  O        18.5576319100       20.4413725000       15.8172092200
  O        23.3551469400       18.0882408000       20.3999188200
  O        20.9611421300       18.3894072500       23.1034955600
  O        17.3863624100       22.0315927900       17.8109304400
  O        23.5837093300       19.1368626700       17.8517891700
  O        19.1304859600       19.1134792000       19.9042469300
  O        20.9601601100       16.8392992700       19.4955674000
  O        19.6984870000       22.8955614800       22.1253110300
  O        22.2277050300       22.3529590700       19.7931507200
  O        20.1707016500       17.3243784400       17.1361845200
  O        15.9064597400       21.0468993300       20.1376998000
      54
 i =        1, time =        0.000, E =      -309.9465844809
  H        15.8409453600       17.5630141600       17.5739369300
  H        20.1894348400       18.8547399100       18.6385916300
  H        21.5037878100       19.3109818700       17.9472676400
  H        18.0129626900       17.1150981700       22.2704868700
  H        17.1042628800       18.2067045100       21.5415819600
  H        18.4759152800       23.8789541500       18.9039945800
  H        19.7210039500       24.1657435700       17.8880213200
  H        15.7582424200       18.1818855000       19.8475763500
  H        15.9424818900       19.5152631400       20.6419636400
  H        21.9135376700       25.0503661900       17.3995563400
  H        22.0877048200       23.7561515800       18.2269761900
  H        21.0338551600       20.7093057300       22.1664254200
  H        20.7470353100       20.6646490800       20.6806778700
  H        18.9864982500       19.7910650200       17.0975249700
  H        17.6938265700       20.6276803400       17.0964746700
  H        22.3624369500       18.7281973000       21.5886305600
  H        22.9883478200       17.7573015100       20.3674386800
  H        19.4801461300       19.0286504800       22.7869549300
  H        20.5923153300       18.5244917400       23.8103362400
  H        16.3807190700       22.8166325500       17.4286171300
  H        17.9309143400       23.1519678300       17.3819376000
  H        23.0011576600       19.3879586900       19.6805401800
  H        23.7768162600       19.3663257700       18.1357962800
  H        18.5498195200       19.9206371100       20.0758330900
  H        18.9288828000       18.5935964100       20.7607780900
  H        23.5006236700       15.4866601100       19.4251151100
  H        22.4680591200       16.1836509600       18.4890786700
  H        19.4405984300       22.1695375100       21.7417701000
  H        18.4820552900       22.6201840000       22.7658752900
  H        23.0601270300       21.7477115700       18.6177009100
  H        22.4778657900       21.9212543800       19.9322689300
  H        21.5859168100       16.0516785600       16.5611156400
  H        20.7952503400       17.2109899600       17.2621532300
  H        17.6352828500       21.6840773000       20.7339532600
  H        17.3038252900       21.5708256100       19.2512780300
  H        16.7772248500       18.8922796200       17.4457034100
  O        16.0540416300       18.3696092600       17.9783619000
  O        20.6059691300       19.0137585300       17.7223709300
  O        18.0419397600       18.0108842500       21.9940905600
  O        18.7252028000       24.1932739200       17.9952025900
  O        15.8502989400       18.5414326400       20.7789748100
  O        21.4036783400       24.3644201200       17.8548861300
  O        21.0842937500       21.3085810200       21.3540661200
  O        18.0048516100       19.7071067100       16.9316809500
  O        23.0696273500       18.5422645800       20.9364117700
  O        20.3639568300       19.2313096500       23.1769033600
  O        17.2451314900       22.4360522200       17.2392198600
  O        23.1246685300       19.7782649300       18.6773145500
  O        19.3507287100       19.3447044600       20.2290599300
  O        23.3215891900       16.3494878800       18.9793447300
  O        18.5620184400       21.9230595200       22.1322498300
  O        22.6977686200       22.4819289500       19.1357597100
  O        21.0800780000       16.2188800600       17.3663705000
  O        17.3241633700       21.0328229500       20.0611397100
      54
 i =        1, time =        0.000, E =      -309.9196458855
  H        19.0902830700       18.1151141400       17.2618238500
  H        20.4790907600       19.3313749200       18.3420874800
  H        21.3777569200       19.1858600700       17.1036558500
  H        18.4312452600       16.1324780600       21.2705508000
  H        17.5885596300       17.2291894900       20.7100559700
  H        18.2008708000       24.8251050800       19.2688652000
  H        19.6120275700       23.9857864500       19.2859000500
  H        17.2107145600       17.4056058600       18.5126561100
  H        16.2442922200       18.1608058600       19.5068981700
  H        21.1400746900       25.5022262600       18.2314220200
  H        21.9079278100       24.4701253900       19.2244886600
  H        22.7872161200       20.8465944700       21.2906212400
  H        21.3191160400       21.0985076600       20.9894393000
  H        17.8045073000       21.2931924000       16.3889586600
  H        17.4262159200       19.7273734800       16.4520324600
  H        23.6033971300       18.5714285500       20.2895904100
  H        24.9734012500       18.9181283300       19.7652390200
  H        17.8929049100       18.1583800200       22.9310256700
  H        18.1063850200       18.9598598800       24.2320048500