      51
 i =        1, time =        0.000, E =      -292.7155605852
  H        17.7947080400       19.7395637100       20.4475078100
  H        20.3956528700       22.0330748800       19.0265633300
  H        20.2741019300       22.0531285800       17.4035425900
  H        18.8776210500       16.0498281400       21.7379983700
  H        19.3677469000       17.2119633700       22.7062434500
  H        21.7754081500       23.8663809800       23.2907781000
  H        20.2979246300       23.7838088500       23.1643298200
  H        17.9132937100       19.1713517300       22.5807767500
  H        18.7160803600       18.7578390700       23.8931508800
  H        24.3063159600       20.6682678200       19.1074812000
  H        24.7923106900       19.5595948800       20.0739260900
  H        21.2583576200       19.6887204300       24.3271677900
  H        21.5639171300       21.1206515900       24.3433271300
  H        19.5921326400       17.0403149800       18.3211497800
  H        19.1986890600       17.0432632500       16.8185609000
  H        22.5470993300       17.7587743700       19.8169767500
  H        23.4968881000       17.0792583800       18.9997778000
  H        22.1832681600       17.4841385300       24.1224796600
  H        22.5551461600       18.5154568100       22.8669519000
  H        19.4618035300       21.2731056900       23.1980161400
  H        17.9972038300       21.7070348900       22.6756175900
  H        22.9771831500       19.4899054800       18.0391469900
  H        21.7481547800       20.2307483600       17.5748540100
  H        20.5642520300       23.2524640100       21.1563641300
  H        19.5663878000       22.1956655100       21.1213631400
  H        20.5197149300       17.2182283700       20.8453569700
  H        20.2334194800       18.2873835100       19.7616966200
  H        23.7233239000       21.5163097900       24.1541694800
  H        23.0066173200       21.8599932900       22.9174955100
  H        21.9447977600       20.9033648000       21.0823257400
  H        23.5461619000       20.8338520700       20.8503117700
  H        18.7450955400       18.7448136900       18.4131440700
  H        19.3128213600       20.0934954200       18.9113239500
  H        16.4154638700       19.4706183600       21.0466775100
  O        17.2554407600       20.0523936800       21.2104803000
  O        20.2974113900       21.4943348300       18.1999319900
  O        19.7451206100       16.4840044500       22.1589200400
  O        20.9946338000       24.3437953500       22.9316076500
  O        18.2967382500       18.4275946700       23.0821574700
  O        24.8621121900       20.5484892800       19.9281060800
  O        20.7866845400       20.5452210400       24.4202867700
  O        18.9397613600       17.4077180700       17.6472164500
  O        23.4771556400       17.8943458700       19.4769222800
  O        22.5733858300       18.3646305500       23.8893273500
  O        18.9348174400       21.9695994000       22.7432896800
  O        22.6992945900       20.2562855300       17.5149995900
  O        20.1842433900       22.6190645500       20.5177782000
  O        20.8253068800       17.4710310800       19.9025751200
  O        22.9790931600       22.0664454100       23.9126399700
  O        22.8061658300       20.7904535200       21.5808516900
  O        18.9245342000       19.2876160700       19.2539145900
      51
 i =        1, time =        0.000, E =      -292.7458914653
  H        17.5037785800       19.7558065800       19.7982755500
  H        19.5350770400       22.3575494600       20.5658137000
  H        19.1209256100       23.3515096100       19.4933902900
  H        20.8074072400       16.0757798400       21.8920578200
  H        20.6721652500       17.5529442100       21.3951980200
  H        21.0462841100       24.6349182300       24.0332970800
  H        22.2359172300       23.8040852600       23.3429042800
  H        18.6415308200       18.6982949400       21.7331148000
  H        19.5989257800       18.9446895900       22.9436789500
  H        22.8563102900       20.5394287700       19.1742050400
  H        23.0804616600       19.0207938700       19.1909326000
  H        22.5724028900       19.4162354700       24.6717884600
  H        22.6945822200       21.0144766000       24.8952267200
  H        19.5035822000       17.9631538700       16.9761930100
  H        20.5602993600       19.0280016700       16.6086594200
  H        22.0902121100       16.7984620200       20.0883792000
  H        23.0191551800       16.1721729300       18.8524249400
  H        22.4664559000       17.5940608800       22.9256747000
  H        22.6392166800       19.1551600600       22.7466181900
  H        20.6923991600       20.0708131100       24.6727151800
  H        19.1442085700       19.8571524100       25.0695638600
  H        22.3597749000       22.7634678200       18.6889541000
  H        21.1026703800       22.0282955700       18.9563397700
  H        20.2935937600       22.9925366300       22.5727063500
  H        19.5630315400       21.5316538300       22.6244236500
  H        20.6834218900       16.6884591900       18.6003185900
  H        19.3981361600       17.3793531700       19.0067447800
  H        24.5033031000       22.6547485200       23.1620967500
  H        23.2299909700       21.7305554200       22.9917131300
  H        21.5331843400       21.2809119000       21.8179807700
  H        22.7387161300       20.3324842500       21.2013880500
  H        18.5016320700       19.9895560600       17.7316300400
  H        18.4039185400       21.2906758600       18.7229195000
  H        16.4743812100       19.4087903400       20.9353523600
  O        17.4162595300       19.2454004300       20.7244032400
  O        19.3519750800       22.4594159900       19.5606406100
  O        21.4051330200       16.7642042700       21.4745256500
  O        21.2222211900       24.0057610200       23.2705950600
  O        19.4673193600       18.3428122000       22.1620078600
  O        23.2211990600       19.8012686700       19.7064463700
  O        22.2167398800       20.2201071200       25.1643287000
  O        19.6114444800       18.7881484400       16.4942801400
  O        22.4384450200       16.9061049700       19.1556345500
  O        22.8742956200       18.4044378600       23.3997469500
  O        19.7208303700       20.1170105700       24.3192577300
  O        21.9432941400       21.8326957800       18.5793942100
  O        19.9935486900       22.1661464000       22.0533111000
  O        19.7461863700       16.7514600400       18.3697060500
  O        23.5303911000       22.6301889500       23.3666905600
  O        22.3509933200       20.6953091400       22.0400361500
  O        17.9079400600       20.5035264500       18.3229614300
      51
 i =        1, time =        0.000, E =      -292.7452647429
  H        18.0854217000       19.3333403500       19.7754520000
  H        20.2301772700       22.2898080400       19.8636442800
  H        19.6381592200       22.5717073900       18.4693377300
  H        20.4449352500       16.2546390700       22.1295003200
  H        19.9343949400       17.7491256200       22.0499619700
  H        22.0805697500       24.0548907200       23.6763469400
  H        21.0152539300       24.9124610400       24.3337110200
  H        18.1585193100       18.7746041700       22.1392316200
  H        18.9986283100       19.2224961800       23.3042954900
  H        23.6153568000       20.2041270700       19.1231876200
  H        24.3704773200       19.2387046800       20.1070803200
  H        22.0817882900       19.7612996800       24.4470858500
  H        22.1896934600       21.1937308200       24.9052312000
  H        18.3307440100       16.7365165100       16.9282660300
  H        17.8321894600       16.9453842800       15.4868498700
  H        21.7532261200       18.0412678000       20.5414318400
  H        21.6812594400       17.3657481800       19.1366074100
  H        22.0751737400       18.3015529700       22.8969943900
  H        23.0057718900       19.6202685700       22.7998446100
  H        20.4954413000       20.6884592200       24.1569344000
  H        18.9618985200       21.2644274600       24.1096512100
  H        22.0502234800       19.8708284700       17.9026888200
  H        21.8710301900       21.3695345700       18.0062980100
  H        20.8371872800       23.3349593700       21.9375023200
  H        20.0190029100       21.9068297300       22.2593540800
  H        19.3818084600       16.2963522600       19.4938079900
  H        19.8678320600       17.6128576900       18.9294342600
  H        24.1788102600       22.5712607100       24.5348575300
  H        23.3525501600       21.9342869200       23.4302749700
  H        22.1190203800       21.5082961000       21.7026223200
  H        23.6032260100       20.8881088800       21.3119348500
  H        18.9736498600       19.4649923600       17.6940052400
  H        19.7622627300       20.3953050600       18.6043778800
  H        16.7521467800       18.6598436300       20.1949212800
  O        17.4409326400       19.2174800000       20.5295482200
  O        20.2939495700       22.0281899300       18.9009425300
  O        20.5967269900       17.0916454100       21.6505751000
  O        21.1811062000       24.4137840300       23.5105356200
  O        18.6043819000       18.3809138800       22.9192045000
  O        24.3540023700       20.1796085000       19.8623511400
  O        21.6445799400       20.3848781500       25.0626043700
  O        17.6388835000       17.1844936900       16.4052055000
  O        22.1564021000       18.1072625400       19.6439223800
  O        22.8505935300       18.7568053800       23.3829482700
  O        19.6355653000       20.9068868000       23.5463487700
  O        22.5359015400       20.7243199300       17.7223318000
  O        20.3780334500       22.5236497300       21.5236619200
  O        19.7474295700       16.6668962600       18.6777030400
  O        23.2253600600       22.5265543800       24.2371242100
  O        22.9667525100       21.1032046600       22.0901311700
  O        19.2633321200       19.5343857100       18.6059316100
      51
 i =        1, time =        0.000, E =      -292.7217579764
  H        17.8692414100       19.7158620600       21.1557723400
  H        19.6541891800       22.2355941100       19.7251125700
  H        19.5374484400       22.8611719700       18.2783495000
  H        21.5984238100       15.5559481400       21.8764708200
  H        20.6390790700       16.8544887300       22.1527661300
  H        20.9262707800       24.6307466600       23.2836104800
  H        22.2816695800       23.9516963600       22.9561668700
  H        19.1809488300       18.7654163100       22.8082156800
  H        19.5168404800       17.8720844300       24.1241892600
  H        23.5189240800       20.2741772800       19.0761796300
  H        23.8151547400       18.9949771900       19.7565429400
  H        21.4264647800       20.2899285100       24.8789752000
  H        21.4049979000       21.7365136700       24.5750780900
  H        18.9935936100       17.0787791400       17.6665907900
  H        18.9460300900       16.9858051000       16.1266005700
  H        22.7993012000       16.9073653900       20.0960424000
  H        22.5691070900       17.5269236800       18.7371267300
  H        21.7155215300       18.2779759000       23.8259192100
  H        22.5747692700       19.3577255000       23.0161452000
  H        19.7247624800       21.3080335000       23.9958717600
  H        18.5342716300       22.2186083200       23.9112667200
  H        21.3438221200       21.1631049000       18.4987865000
  H        21.8595490800       21.3243852300       17.0299702000
  H        20.9503289500       23.3088958200       21.3653495600
  H        19.9120389000       22.2878291400       21.7492948900
  H        20.6323084100       16.7947247300       19.7023015000
  H        19.8444103800       18.1202072900       19.2663240200
  H        23.9594561900       22.3841325800       23.6091156600
  H        22.9392585800       21.6775074200       22.6945120700
  H        21.6041537600       21.0764423000       21.4177395800
  H        22.8421558700       20.2437586400       20.8412109100
  H        18.2868364400       19.0423681000       18.0485698400
  H        18.6842390700       20.2387540500       18.9415105100
  H        18.3315691100       20.8153941900       22.3266291200
  O        17.7544061400       20.0047262700       22.1088216600
  O        19.6349822400       21.9834329300       18.6761423600
  O        21.1710791500       16.3950090300       21.4826346400
  O        21.5131633100       24.4819288200       22.5452404900
  O        19.6798323200       17.9587838600       23.1380283300
  O        23.9992907000       19.9812411800       19.8715573700
  O        20.8624780000       21.0950125400       25.0354497000
  O        18.3609220100       17.1909960800       16.8806135400
  O        23.2691803400       17.2219460900       19.3385492800
  O        22.3656210600       18.9629059800       23.9249516400
  O        19.1468882200       21.7918620300       23.3126423400
  O        22.0917133300       20.8539446300       17.8909444600
  O        20.4903627300       22.4862205400       20.9731603400
  O        20.2469764100       17.2123089800       18.9253776400
  O        22.9983060300       22.3821271400       23.3691271600
  O        22.2601162100       20.3826990900       21.7324907300
  O        18.6264461700       19.2488311600       18.9940443700
      51
 i =        1, time =        0.000, E =      -292.7159583628
  H        18.1309340300       20.3549350000       21.0909029100
  H        19.4759965500       21.7017521100       20.1811158800
  H        18.8864947400       20.8082997900       19.0822016000
  H        21.9491643500       16.3185007300       21.7829514600
  H        20.5903618200       16.9476185600       21.5645616200
  H        22.4880611200       23.4696750400       23.3537803700
  H        21.0386367500       24.0725587100       23.3136375600
  H        18.7966918700       18.5960339500       22.2472929000
  H        19.0698448600       17.6318092300       23.3957757300
  H        25.3209334800       19.8381130200       19.1109309200
  H        24.1337627300       18.8476955200       19.2817237700
  H        21.5888070700       20.2469589100       24.8615529000
  H        22.0421262500       21.6811960500       25.1903017900
  H        17.4951596300       18.3424310100       17.9528120800
  H        17.0833567300       17.2767381900       17.0240626500
  H        22.7813396200       17.8342997100       19.9464802700
  H        22.1157118800       17.8388736100       18.5590437200
  H        20.9772025700       18.5451746600       23.2051477100
  H        22.3387823500       19.1916729100       23.0181780200
  H        19.8889487400       21.6652904200       24.2245439000
  H        18.5776717100       21.3953101200       23.3562713900
  H        22.5402228400       21.5902889800       17.8487641700
  H        22.3800460000       19.9873897100       17.6818970400
  H        21.3615389700       23.0424796400       21.4617371500
  H        20.4433829300       22.0389389600       22.1884538000
  H        20.3021909800       17.1153342000       19.5131471600
  H        18.8641088700       17.0426584200       18.7724700000
  H        24.4582708900       22.4042520900       23.8573755100
  H        23.5574302300       21.5339654100       22.8275834600
  H        22.2863361700       20.8126399200       21.3386356600
  H        23.7192615300       20.1852328900       20.7883858400
  H        19.3866345900       19.0612349400       18.0706696000
  H        20.1216989900       20.3014442800       17.4568467400
  H        16.9710898100       19.4034619500       21.7847774200
  O        17.8607125200       19.8349328700       21.9798731600
  O        18.6208307800       21.2271509400       19.9224009100
  O        21.4450313000       16.7587908800       21.0917666000
  O        21.9213597000       24.2189558400       22.9421759100
  O        19.3606507500       17.7869018400       22.5189950800
  O        24.3940756800       19.8177741800       19.3094947500
  O        21.2246791900       21.1335013600       25.2418329300
  O        17.1091898600       17.4501676300       17.9755277200
  O        23.0058715600       17.6978458000       19.0063125000
  O        21.7375464900       18.8773916300       23.7701855800
  O        19.2776001000       22.1595633500       23.6328053600
  O        21.8747475000       20.8693839900       17.8875319000
  O        20.9354835700       22.0935531300       21.3662966500
  O        19.6102257500       17.5572453200       18.9689779600
  O        23.5631609600       22.1355446100       23.5664847700
  O        23.1321099200       20.4041147100       21.6674099500
  O        19.2255388500       19.9106202900       17.4890714700
      51
 i =        1, time =        0.000, E =      -292.7436520832
  H        17.3216299200       19.8709262100       19.5110033600
  H        20.5154294600       21.5284826500       19.3129206600
  H        21.0855373900       21.5421799200       17.8529788000
  H        19.8758895400       16.6632564900       23.5736410100
  H        19.6885760100       18.0541918800       22.7951727100
  H        22.2218591400       24.0844170700       22.5056051200
  H        20.7820371200       24.3025462000       22.8817411800
  H        18.1936025600       19.5489003000       21.9067632800
  H        19.0916441000       20.2953352900       22.8869274300
  H        23.8044983400       19.5433385800       18.8390457700
  H        25.3522281100       19.4564016900       19.4751485900
  H        22.2061499000       19.8007271200       24.6741156400
  H        22.5077464300       21.3501007600       24.5602165800
  H        19.9394988700       18.5868452100       17.2673523400
  H        19.0917302200       17.7781328800       18.3138999100
  H        21.2716423700       17.4497231500       20.9895143000
  H        22.3179815300       16.3575360000       20.4660960200
  H        21.7402386300       17.8654179900       23.9794058200
  H        22.9081274100       18.6145104200       23.2098300300
  H        20.7210972700       21.1830826300       24.2624738600
  H        19.4396641700       22.0851284900       24.2206267400
  H        22.3032238200       18.2012722300       18.7650262700
  H        21.6884258800       19.6474078100       18.5383671000
  H        20.8665200400       23.0397493200       21.2291789500
  H        20.3726603400       21.7391890000       21.8833515200
  H        19.2504331000       16.9666104700       20.3241651700
  H        18.0365495900       17.8859628500       19.8202537700
  H        24.5752227000       23.0664944600       23.4199993500
  H        23.6538217500       22.1998130700       22.4421453300
  H        22.1640618600       20.9435408900       21.3208177300
  H        23.5240537400       20.3705449300       20.7879712400
  H        18.1614966600       19.7274600500       17.6411507100
  H        18.6532805600       21.0957624800       18.1278417900
  H        16.2008388700       19.2999907500       20.4155683600
  O        17.2089284100       19.3026541500       20.3305391800
  O        20.4432365600       21.1268109100       18.4326051300
  O        20.3714509600       17.3221516700       23.0597168600
  O        21.4226590200       24.5046905000       22.1691169100
  O        18.9081464900       19.3799794100       22.5909666800
  O        24.5244650400       19.9879550200       19.4164593500
  O        21.9009700900       20.7228435600       24.9824472600
  O        19.0496440200       18.1631142400       17.3409401000
  O        21.7709358500       17.0805480600       20.2378768100
  O        22.5271483400       18.4195344800       24.0449587300
  O        20.0519157200       21.6528207600       23.5887118900
  O        22.4210746700       19.0636421900       18.2739393500
  O        20.7860357100       22.0748561300       21.0181907000
  O        18.4568431600       16.9638740900       19.7470100200
  O        23.6808495100       22.8292217700       23.1844154200
  O        23.0765835400       20.6401595800       21.6046566000
  O        17.8009265000       20.5082645300       18.1340037800
      51
 i =        1, time =        0.000, E =      -292.7176579891
  H        17.4933042200       19.6340071800       21.0883708400
  H        19.2485004800       22.9966759400       19.9835205900
  H        18.7220098800       23.6483450100       18.6966013100
  H        20.6536950900       16.6418206100       21.5966622500
  H        20.4278393600       16.8781410400       20.1079356500
  H        22.3043365000       24.2410283900       23.5883940900
  H        21.0361176000       24.9459666900       24.1691061400
  H        20.0324476000       18.4199359000       23.0724727600
  H        19.9706004200       17.3192111600       24.0929141200
  H        23.5720897800       18.6263155800       19.9421896800
  H        24.4526486200       19.9520278300       20.0758097700
  H        22.2649910600       19.7575418900       23.9481568100
  H        22.2901971100       21.2778307500       24.3681705500
  H        18.0768484800       17.3856513200       17.6100250900
  H        16.9922909500       17.5359695100       16.3433734100
  H        22.6381956200       16.6567842000       20.3739764400
  H        23.1349529500       16.7818749200       18.9433942400
  H        23.3084652900       18.6556444800       22.2469629400
  H        23.3837042100       17.2918155500       22.9102276900
  H        20.5919667000       20.3654475400       23.1936017200
  H        19.1688727000       20.1544486500       22.2726766600
  H        22.1818443400       19.6195625600       19.2220152400
  H        21.4547378700       19.9944462200       17.8497109000
  H        20.4513951800       23.6841510200       21.9487040200
  H        20.1745209500       22.1343413200       21.7476857900
  H        20.4479148300       18.1061503500       18.6951655800
  H        19.1832762900       18.3489425700       19.4742654100
  H        23.9007701000       22.5314463300       24.5619118400
  H        23.5779925200       22.4322245300       23.0001203400
  H        22.3386035500       22.6052378300       20.9532828100
  H        23.1144337300       21.2341673600       21.0689244700
  H        18.0605187500       19.8714309900       18.2592456600
  H        18.2055468900       21.1309933300       19.1830768800
  H        17.2196068700       18.6107590000       22.2789277600
  O        17.6044706700       19.5145533000       22.0392342700
  O        18.5492022200       22.8477458300       19.2623858600
  O        20.9773957400       16.3271505900       20.7450024900
  O        21.5234466400       24.8673977200       23.3552933100
  O        19.4960083600       17.6372617000       23.2608368700
  O        23.5836904500       19.5622578400       20.3056589400
  O        21.6837222600       20.4143934400       24.3652803500
  O        17.6554194700       17.9999892200       16.9223749700
  O        23.4678547000       17.0532760800       19.8108223300
  O        23.0325382300       18.2105149800       23.0763772300
  O        20.1733266100       20.3468004300       22.2945284100
  O        21.8628943500       19.2655718700       18.3476122800
  O        20.4359929900       22.9607055200       21.2828283000
  O        19.5816967600       17.6373166700       18.9804457900
  O        23.3283156700       22.8219583900       23.8293951300
  O        23.2062699600       22.1881298100       21.1785168800
  O        18.2050524800       20.1306027500       19.1839290300
      51
 i =        1, time =        0.000, E =      -292.7287352074
  H        17.4329702100       19.8915639700       19.7301601700
  H        20.0996547500       21.7239052500       19.8435531500
  H        18.9248653100       21.8325663900       18.7055715900
  H        21.8702611900       16.7085567600       22.7236604000
  H        20.7845803700       17.1910198600       21.8063956000
  H        21.4187386200       23.9135948500       23.6877996800
  H        20.0063665800       24.3372191300       23.7887490900
  H        18.2495238400       17.9018540600       21.4531741600
  H        19.2520314300       18.4634659700       22.4805130800
  H        23.6265723300       20.7234376300       18.8700665300
  H        24.1496782800       19.4601929600       19.4951362100
  H        21.8523266700       19.7066521900       24.8576814100
  H        21.6599431400       21.0719277600       25.5655836400
  H        19.1430844900       17.4783730600       18.9329685800
  H        18.2724079700       16.1244010800       18.8819416700
  H        22.8436990400       17.1328763300       20.2526953100
  H        21.9892404000       17.8988900000       19.2482183400
  H        22.8125912900       18.4854785800       22.8412922100
  H        23.1292909100       19.9761097600       23.1335065600
  H        20.0503278300       20.3560477300       24.2757325600
  H        18.6917453200       20.4260762500       23.5207450500
  H        21.4887256900       19.7714511200       17.6723240100
  H        21.5327843800       21.1970796400       18.0726737800
  H        20.6065817800       22.6785732200       22.0711991600
  H        20.1902197400       21.1494761100       21.9485447200
  H        20.0794581600       18.8884855600       20.4404191300
  H        19.6021505200       19.6517786900       19.2823177900
  H        23.9338356000       22.9355194600       24.0831994200
  H        23.1573966800       22.6815891200       22.7926600000
  H        22.2255977300       21.4234296400       21.4879632900
  H        23.7327398500       21.2373375900       20.9135808500
  H        17.7022245700       18.4730908800       18.1548321800
  H        17.6229212400       19.7722905400       17.2548590800
  H        16.4771381200       20.1628043600       20.8154160400
  O        17.3709121600       19.7157325700       20.7443209200
  O        19.7360778700       21.3368217400       18.9950965300
  O        21.7637832900       16.9776938100       21.7984363200
  O        20.6178194100       24.1023244400       23.0748744000
  O        19.1393785000       17.6704640700       21.8938739000
  O        24.3952155800       20.4167607800       19.4671416900
  O        21.2367596000       20.2207354200       25.4318106100
  O        18.5371197600       16.9447111200       18.3393319300
  O        22.8820570300       17.6511793800       19.4276726900
  O        22.8201294900       19.1704232800       23.5654447700
  O        19.6302821000       20.2026580700       23.3588244000
  O        22.1438286000       20.5105386800       17.6715203900
  O        20.6301144800       21.8574405700       21.4150727100
  O        20.1652477700       18.8540796300       19.4851557900
  O        23.1446896600       23.3169532000       23.6019524700
  O        23.1940426400       21.3606426100       21.7383793300
  O        17.3040655700       19.3909844100       18.0918989000
      51
 i =        1, time =        0.000, E =      -292.7074341965
  H        17.4441431400       19.0616696000       19.7536698200
  H        20.3718232200       22.3506752300       19.5648584000
  H        20.3267406700       22.7513981800       18.1539777800
  H        20.4411898900       15.7987283400       22.0066882700
  H        19.6954991600       17.2638262200       21.8473157800
  H        22.2876591400       24.6765459900       23.0978393600
  H        21.9742578400       23.1583082500       22.9787404000
  H        18.0830865800       18.6520882800       21.8681744600
  H        19.2585122900       19.2387414500       22.7076660100
  H        23.7676492600       20.9629053200       18.7006765300
  H        25.2096063900       20.7616432400       19.2293126800
  H        21.5956324000       19.9742829200       25.2668213600
  H        21.8525847900       21.5481267500       25.3365639600
  H        20.1277130300       17.3412005200       17.5567799800
  H        20.7876318700       18.7286359900       17.2825280500
  H        22.1361504300       19.4286495500       20.7013072900
  H        21.6857431000       17.9792949900       20.6081204400
  H        24.0134480500       18.5176452500       24.0692806700
  H        22.9405767600       18.6885660000       22.9708782900
  H        19.9934333000       20.9410265900       23.9886456300
  H        18.3831254900       20.8468959100       23.5320802700
  H        22.4328655100       19.2404067100       18.8162833600
  H        21.5899477700       20.5511318700       18.3004985800
  H        20.0309531600       23.6322479700       21.5543089000
  H        19.5846144400       22.1481529400       21.7597310100
  H        19.5407590700       16.3416546400       19.9287245600
  H        18.5593448700       17.3375277900       19.1442825800
  H        24.4764823900       22.0017431500       24.3218931100
  H        23.6847061900       20.7629974700       24.2401835600
  H        22.6064978600       20.7807457800       22.5371692000
  H        22.9479782300       21.0957928600       21.0200183100
  H        18.6530097300       19.1359463600       17.7736392100
  H        19.0243741100       20.2370071800       18.7849702100
  H        16.4326396500       18.0054163300       20.3268021600
  O        17.0100351100       18.6838856300       20.6477477000
  O        20.6162793000       21.9516816500       18.6523686300
  O        20.3496549400       16.5694141200       21.4382510600
  O        21.4953285900       24.0245826000       23.1111878900
  O        18.8541005800       18.3857708700       22.3883048000
  O        24.3717410100       21.2319914900       19.5187986900
  O        21.1576639300       20.8452644900       25.3883339700
  O        20.1009831700       18.1467597900       16.9298957100
  O        22.4196332400       18.5385001000       20.3148489100