      42
 i =        1, time =        0.000, E =      -241.0461528924
  H        18.1164396900       16.3005485500       20.7596101600
  H        17.2308759900       18.1001666800       19.3367418100
  H        17.0596454100       16.8655767000       18.5024394900
  H        19.1000151200       17.9491595500       22.7444961800
  H        18.8896981800       19.1532472200       21.6805399200
  H        17.6183219700       22.2111390900       19.1132917500
  H        18.0468237600       20.8965505600       18.2763175700
  H        15.2972718100       17.4225198600       21.8876445600
  H        16.1525960300       17.6609453900       23.1130002200
  H        19.4327227300       20.0744429700       17.0523200600
  H        18.3562303100       19.1262003500       16.9163218900
  H        18.5103353300       20.2571740800       25.2050566800
  H        17.7224875300       19.6400788300       26.4132544800
  H        18.1235232700       20.0594447000       14.7547360600
  H        18.4815426500       20.2152428400       13.2390224400
  H        21.3710856300       19.6475429400       16.9567075300
  H        20.6604819600       19.2023960500       18.3362721300
  H        20.4577809300       21.3372680700       23.3568444900
  H        19.9290571600       19.9417060500       23.4485735300
  H        18.0668010200       18.1437323600       24.7608526400
  H        18.0828490000       16.5919844000       24.6491981300
  H        18.4263281600       16.8151373400       15.9928024800
  H        18.5581768100       17.7633606100       14.7225611200
  H        17.0626820800       20.0073932600       20.3610937200
  H        16.5720696900       18.7997145400       21.4322845200
  H        20.4213245900       18.3770653000       20.6641557300
  H        19.5321542100       17.7299668700       19.4716325900
  H        17.9476174000       15.3895180200       21.9612755900
  O        17.4336064200       15.8639939800       21.2955640400
  O        17.7462462200       17.5529214200       18.6495945100
  O        19.6339878700       18.6302638200       22.1256829700
  O        17.7058749100       21.2011962200       19.1964368300
  O        15.4454977800       18.1134675600       22.5834127800
  O        18.4578514900       20.0270581700       16.7233732500
  O        17.7214716800       19.6451379600       25.4329973700
  O        17.9087556200       19.7246448100       13.8491442500
  O        20.6897878000       19.8834478500       17.6023963600
  O        20.0122135700       20.7774370600       24.0448333000
  O        18.0585016900       17.3815295900       24.0854440200
  O        19.0495099900       17.3428048300       15.4671342500
  O        17.2663451500       19.0875304200       20.7690172800
  O        20.4816863900       18.1261031000       19.6764388500
      42
 i =        1, time =        0.000, E =      -241.0263400080
  H        17.2223905500       15.7888742400       18.9582933900
  H        19.0811229100       17.3989616800       18.9577925700
  H        18.7694777300       16.7345640500       17.5448929900
  H        20.9866317300       19.2125232700       23.0132584900
  H        20.0327977500       18.8102198100       21.7503515700
  H        17.4338078600       20.7563153000       19.1840580900
  H        17.4328998100       20.9354928600       20.5667656900
  H        16.3814468200       16.7944877300       21.3897573400
  H        16.8379537900       16.3684570200       22.8518133500
  H        18.5394842600       21.2578674000       17.9034548900
  H        17.4097247100       21.8367329400       17.0926124400
  H        17.5766691600       18.1423501900       23.7049271000
  H        18.2088458300       19.3957315700       24.1772688300
  H        17.7747163900       19.8722798700       14.3523913000
  H        18.4182902000       20.0175985600       15.8198516400
  H        19.7260077300       18.8387573800       17.6333190200
  H        20.4871275500       20.2222497500       18.1524461600
  H        19.2344528200       21.5976705500       24.2729720800
  H        19.6706493900       21.1888789400       22.8902257200
  H        18.0700286700       15.2389174300       24.4284371600
  H        17.9441484900       16.6569518500       24.8972293400
  H        16.3824218600       16.4701157100       15.6433719500
  H        17.2111472300       17.6955052200       16.1737729000
  H        18.5099937500       19.0550714700       20.2830328600
  H        17.8558370000       17.7046724500       20.7479166000
  H        21.4131523000       20.3041118100       20.6867193500
  H        22.4585772900       20.9966339700       19.6269826000
  H        16.4200834200       16.9512412600       18.5468651200
  O        16.7109702300       16.5042272300       19.3611364700
  O        19.4694291600       17.2631077800       17.9706139800
  O        20.7053998500       19.4794580800       22.1132516100
  O        17.4209679400       20.1316291100       19.9723003400
  O        16.4653531800       17.1140543500       22.3466327900
  O        17.7851168000       21.8815978800       17.9884903500
  O        18.1629026200       18.4820327300       24.3913582000
  O        17.8010822000       19.4971468600       15.2449156900
  O        19.8010011300       19.9170311900       17.5245352200
  O        18.8102810400       21.3807957300       23.3817642500
  O        17.4196373500       15.9460382000       24.5216730300
  O        16.6295911100       16.9204588000       16.4634338900
  O        18.7527747400       18.0641210400       20.6877161800
  O        21.5342545700       20.7403029100       19.7767340300
      42
 i =        1, time =        0.000, E =      -241.0480632204
  H        18.7080650800       15.1412180500       20.4458258900
  H        17.1316882500       17.2729978500       18.4891342400
  H        18.1766573000       17.1012067300       17.2250249100
  H        18.6456533400       18.5028515600       22.8565241300
  H        19.0192573400       17.5921370700       21.5882575600
  H        18.1996372900       20.8199781300       20.1498855600
  H        18.5426392900       20.3832090300       21.4604162700
  H        16.6222591300       16.2758246200       21.7392220900
  H        16.2202172200       17.0801825700       23.0394475100
  H        19.7768998500       20.3127295700       17.7458363300
  H        18.7433928600       19.3229392100       18.0777745800
  H        18.1945752700       21.2274851900       23.8207069600
  H        19.5487717700       20.5455356700       24.2523541100
  H        18.5934103400       20.7006384300       14.5915151900
  H        18.5376640100       20.3569734200       16.1424107300
  H        21.2156966600       19.3550517000       18.5630891000
  H        22.3974234600       20.3181344700       18.1820918200
  H        16.9671966100       22.9203667000       23.0761901100
  H        17.7920997400       22.2331838500       22.0266725300
  H        17.6153558500       18.7022231600       24.6357945500
  H        18.2427053400       17.2817968500       24.7615195000
  H        19.1147028000       16.9599196100       14.5530079000
  H        18.7657941300       18.2933222500       15.1913037900
  H        16.3882151000       19.2016502600       20.1534407600
  H        16.1697727600       17.7623387800       20.9060867300
  H        20.4592536000       18.2074460400       20.6104536500
  H        19.8810205200       17.5271956000       19.3671990000
  H        17.8740708800       16.3539698100       19.9476811500
  O        18.1883968200       15.9091467700       20.7740206200
  O        18.0196121000       16.8553291000       18.1800811500
  O        19.3344105700       18.3507698700       22.1355036400
  O        17.7477521700       20.6728736500       20.9940187900
  O        15.8892533500       16.8316260600       22.1349159900
  O        18.8375664900       20.2556870000       17.7260908500
  O        18.5637080200       20.3889748200       24.2809890000
  O        18.3517124900       20.0086995000       15.2378216500
  O        21.4946726300       20.1119936300       17.9329682500
  O        17.8695665200       22.6697431400       22.9026943900
  O        17.5605704000       17.7779400800       24.2861522000
  O        18.5361665300       17.2730837600       15.2679681300
  O        16.3398055700       18.2349985000       20.0541576100
  O        20.7321529000       17.8860459100       19.6892350800
      42
 i =        1, time =        0.000, E =      -241.0402241745
  H        17.6202709500       15.3570208900       19.2833712300
  H        20.0284658000       18.9901481500       17.9432961200
  H        18.6945606500       18.4778800000       18.4257608300
  H        19.7817017900       18.3812411900       22.1388017100
  H        18.6768520600       18.7879614200       21.2240396100
  H        17.0401661200       21.5143335900       21.3675228300
  H        16.2771267700       21.1620684100       20.1630484600
  H        15.9851048800       15.9452254600       21.3452209000
  H        16.7094701800       16.1446576900       22.6408964900
  H        18.0289688800       21.3052415300       17.6658178800
  H        16.7955156400       20.3991219800       17.3540467000
  H        19.0983542100       20.3457641600       24.0505919500
  H        18.4209303900       19.8883653300       25.4520083600
  H        18.7968320500       18.6376150800       16.2838389700
  H        19.2493784200       18.9813549800       14.9036520200
  H        19.8582284900       22.5315648600       16.8641023400
  H        20.0806886800       21.2289653200       17.6480130300
  H        19.5162378400       21.9064485600       22.5652066500
  H        19.2642683800       20.3691642900       22.0793070100
  H        18.3988938600       18.1851784100       24.0260698200
  H        19.2732821800       16.9056755500       24.3664521200
  H        17.9799027100       15.6852308900       16.6726374000
  H        19.0798701300       16.3207478200       17.4417526900
  H        16.7793121900       19.5252593600       21.0266512800
  H        16.6849225700       17.9627922500       21.5406667700
  H        20.4114998200       19.9355427700       20.0026340800
  H        21.9228554100       20.0267997800       19.5547121300
  H        16.9653951800       13.9945600600       19.7609359900
  O        17.3412469500       14.8400818700       20.0703565300
  O        19.4375882600       18.2170045800       17.8212034300
  O        19.6793514700       19.0471587700       21.3359384000
  O        16.1597077600       21.1944593000       21.1637285800
  O        15.9031714900       16.4311486600       22.1876411000
  O        17.3132313700       20.7078229900       18.0740971200
  O        19.2105657500       19.7371443500       24.8325230400
  O        18.5160128900       18.5231355700       15.3372818000
  O        19.5722260300       21.5921879500       16.9141517900
  O        18.8467496000       21.1827136100       22.5433707600
  O        18.6709251500       17.3432111900       23.6719487300
  O        18.6183930600       15.4062532600       17.3563638200
  O        17.1518978200       18.6068596400       20.9756867200
  O        21.0521569300       20.3256899000       19.3002168900
      42
 i =        1, time =        0.000, E =      -240.9930731287
  H        17.8028441100       15.6976335900       21.5762263900
  H        17.4889697900       17.9295069500       18.0842172300
  H        17.9260302900       17.2571298100       19.4370524300
  H        20.6634126600       20.5231451200       22.6236307800
  H        20.0122959700       19.2018971200       22.1655371400
  H        18.7712027300       21.5366522300       19.1469435400
  H        17.4772888200       22.0537062600       19.8991556200
  H        15.3407581400       16.7177165300       21.6139515400
  H        15.5381784200       17.9708235500       22.4173897700
  H        17.9731871100       19.7618847900       16.9780380100
  H        16.6453215700       20.2756057600       16.5065982400
  H        20.1462684200       18.9293144400       24.0001526800
  H        20.1023100300       17.5245636600       24.6045865600
  H        16.2565977500       17.9492667400       14.0433951200
  H        16.8097468800       17.5657660600       12.7381593600
  H        20.3756523400       20.2493939700       16.7616840500
  H        19.9406903000       19.7896168900       18.1804768500
  H        18.3633355800       20.5373494000       23.4885986700
  H        18.1979280900       22.0569403500       23.5410921300
  H        17.6979100200       18.5074131500       24.2613713000
  H        16.7354396400       17.8197824500       25.1983003400
  H        18.7501419600       16.9548046600       14.5524536400
  H        19.3359272400       17.5063257900       15.8552026100
  H        18.1066684200       19.7903237100       20.9749600800
  H        18.0712909200       18.5225082300       21.8383447900
  H        20.7332044000       19.4774120700       20.4647485100
  H        20.3851369900       18.1708948400       19.7728372900
  H        17.6599414200       16.9471416200       22.1756339300
  O        18.3681951000       16.4760707900       21.7067861900
  O        18.0411829300       17.1482302900       18.4172553400
  O        20.9457794200       19.5946082800       22.5007427800
  O        18.2817952000       21.5577539100       20.0396067300
  O        15.8483878600       17.5213659700       21.5487421200
  O        16.9804558900       19.5981636800       17.1297584700
  O        19.5679012200       18.3150824000       24.5379674500
  O        16.5651157600       17.1424265200       13.5781926900
  O        19.6603319700       20.3338210900       17.3939370000
  O        18.6618900500       21.3623500600       23.9676548600
  O        16.7020369000       18.2251952300       24.3539368700
  O        19.5402783300       17.3601383500       14.9230483900
  O        18.1601098200       19.4730839300       21.9359295400
  O        20.4087969700       19.1518865100       19.6070437700
      42
 i =        1, time =        0.000, E =      -241.0254489650
  H        19.3180341200       15.6028200300       19.4725123400
  H        17.8034658500       17.4825118700       18.5170935000
  H        17.6860847800       17.8061685300       17.0023875400
  H        20.0161524600       17.3711296200       20.8210085800
  H        20.6853599600       18.4130698400       20.0006239800
  H        15.6036954800       20.5964143600       21.1015777400
  H        16.4663041000       20.6771175100       19.8510093600
  H        16.8493286000       17.9780984200       24.1970087100
  H        17.0781616500       18.9989042600       22.9651398800
  H        17.8941323300       19.6640980400       18.5855948100
  H        18.7363276500       20.9916472300       18.7777834500
  H        20.3064873000       19.6785816800       25.7441034700
  H        19.3124328300       19.9689195000       24.5543817100
  H        18.2052635200       20.2118630400       13.7731195000
  H        19.0896046800       20.1023896100       15.0360515200
  H        20.6826535100       20.8221586500       18.1435994500
  H        20.3173186300       22.0282356600       17.1707994800
  H        19.2535168100       19.1322664600       21.8245870500
  H        18.3473403300       20.3990938600       21.6114791300
  H        18.1639412400       18.5570244800       26.0547145300
  H        17.7932767600       17.3196650800       26.8672563300
  H        16.8146273400       17.0405287400       14.7265141300
  H        17.8907226700       18.0834595500       14.7565547800
  H        16.6371463600       17.4179857800       21.7394929200
  H        16.3088983500       18.2452085200       20.5283437900
  H        21.3067152800       16.9889944100       17.7128250400
  H        19.8822947900       17.7502602700       17.6352317000
  H        18.2804253800       16.2496381400       20.4639623900
  O        19.2408381500       15.8936755400       20.3768347200
  O        18.0565130800       18.1557211900       17.8278957400
  O        20.2419074600       18.3489167600       20.8807668800
  O        15.5529746600       20.4324064400       20.1559437500
  O        16.5130833700       18.2089624000       23.2729655200
  O        17.9259051600       20.5361018000       19.0492794900
  O        19.4330659400       20.0207147600       25.5022884600
  O        18.9142869500       19.7071347400       14.1804757800
  O        20.2810553800       21.6903916300       18.1033794300
  O        18.6716750400       19.7652504500       22.2999272400
  O        17.6110784900       17.7036283200       26.0199516500
  O        17.3592265300       17.5384774500       15.3692457700
  O        16.9331304600       17.6037798700       20.7594721500
  O        20.7819152000       17.7587369700       18.0479453400
      42
 i =        1, time =        0.000, E =      -241.0328192223
  H        15.2506615000       15.5525932700       20.9513144500
  H        20.7552341400       17.5374979700       19.2023086400
  H        19.9001987700       16.8567262800       18.0933197300
  H        20.9761431200       18.6216747300       21.2063033900
  H        19.4976812000       18.5313576800       20.8432054500
  H        17.4724403500       19.2097303500       19.6920124600
  H        18.8127851600       19.7682891300       19.2251435800
  H        16.0096537100       19.3048407600       22.9854926500
  H        16.2347506400       17.7718554000       23.3922911600
  H        18.2206193200       21.6940249200       17.4631545500
  H        19.4320718200       20.7030815300       17.3348754200
  H        19.0217374500       19.9807851000       25.2205328900
  H        18.8485976500       20.4688098600       23.7827942100
  H        18.8801237500       18.7199587400       15.2181845200
  H        17.9752166000       19.7226011300       16.0020651500
  H        20.8245687800       19.1713429300       18.1915020600
  H        20.6430136400       20.6000658100       18.9788128000
  H        18.3438426100       20.9347118200       21.4797678100
  H        18.4289517600       22.3904739500       22.0380638000
  H        18.0336561700       17.7482379200       24.0206839100
  H        17.8405158700       16.5334650400       23.3124076000
  H        17.3637803700       17.2736108900       18.1246242500
  H        18.0264018500       17.4391554300       16.6944329500
  H        15.8087352100       17.3945755300       19.9413118300
  H        16.4063144600       18.2578184400       21.0240767300
  H        21.9478338100       21.2601121600       21.0229158900
  H        20.4670278100       21.3049909000       21.2792739800
  H        14.6253372700       15.2707686900       19.4320839600
  O        14.8087145100       15.9354638900       20.1298947000
  O        20.8182528800       17.1312875700       18.2784480000
  O        20.3347018100       17.9412981500       20.9133062500
  O        18.1351271800       19.8829770400       19.8938819300
  O        15.9182068400       18.3472805600       22.6632849900
  O        18.6540962700       21.1520062300       16.7730390700
  O        18.5563793800       19.7183674100       24.4182916300
  O        17.9864986000       18.7896704900       15.5965755600
  O        20.5434571200       20.1284786300       18.0556892500
  O        18.6126751000       21.4673241500       22.2673397400
  O        17.4753613000       16.9639969800       24.1130609300
  O        17.9667766800       16.8567001800       17.4732603900
  O        16.6121876000       18.0246333300       20.0198439300
  O        21.1371778000       20.7443673300       20.8397833100
      42
 i =        1, time =        0.000, E =      -241.0475818468
  H        17.3626264900       14.7211474300       20.7759419900
  H        18.3252784200       17.9831395500       19.2009228600
  H        18.0657866200       17.3305560200       17.7608925600
  H        20.2981006400       16.8110964400       21.7072351000
  H        19.2373569100       17.9415580300       21.5899042400
  H        18.2873145000       22.1351699800       18.8056068400
  H        19.2165816200       21.0236519300       19.1264263000
  H        16.2694108300       17.0634085300       21.8939086800
  H        16.0809666800       17.7645390700       23.2124964200
  H        17.0148794400       20.2613607500       15.9667910600
  H        17.6463322500       20.3680949800       17.4954056700
  H        19.7425018000       20.2527705000       24.1641191600
  H        18.4178409000       20.9419754200       24.6276196900
  H        14.2267630600       19.5764024800       14.5163056700
  H        15.0975845400       19.1502462100       15.6833069100
  H        21.5231838200       21.3242990300       18.7645926800
  H        21.0068180000       19.9045355000       19.1152792100
  H        20.5904368600       19.2523780400       22.1586076500
  H        21.0455718500       20.6809109200       21.6807519200
  H        18.3916801500       18.5756339300       25.0302677500
  H        18.2407916100       17.4122184900       25.8995079100
  H        17.6899320900       16.9902747000       15.6577890400
  H        17.4615652800       18.5477883600       16.2917706400
  H        17.9054625900       20.0451990400       20.7386003900
  H        16.7987234900       19.1204678500       21.5553805500
  H        20.9943743100       17.9945167000       19.7303101300
  H        20.4290933400       17.8656163900       18.4466314100
  H        17.6401169400       15.9693701300       19.9491817900
  O        17.1950904800       15.6545691400       20.7793646800
  O        18.5617917800       17.2019715000       18.6391281700
  O        20.2026404500       17.7559679000       21.5074902900
  O        18.1935371600       21.2331166300       19.0808316700
  O        15.6242767100       17.6170716800       22.3405545700
  O        17.8135737000       20.0854216300       16.4947855700
  O        19.0583674000       20.2403376000       24.8496630400
  O        14.9784442100       19.8794679000       15.0526205800
  O        20.9147380800       20.8870181200       19.3450799700
  O        20.8099913700       20.1888819300       22.4540849700
  O        18.1066773500       17.6622135500       24.9706686300
  O        17.2321362300       17.5480161400       16.3115572400
  O        17.6721563500       19.1229722700       21.1164751400
  O        21.2617675700       18.1967720400       18.7836796600
      42
 i =        1, time =        0.000, E =      -241.0212604497
  H        19.3880210400       14.2998968600       19.3174672600
  H        18.0045478800       17.7074103500       18.6156409600
  H        17.9426533100       17.8352427700       17.1016617900
  H        19.7921216200       19.1149372600       22.1927811400
  H        19.4526537200       20.6200799800       21.6033834800
  H        15.0632551300       20.8768066000       20.5789559800
  H        16.6021946900       21.1640835500       20.1088709100
  H        17.4158912000       15.8024011100       23.3096454100
  H        17.8970057200       17.2431132800       23.4759447500
  H        18.4273765800       21.3490162100       18.6822683800
  H        17.8072855600       20.0439593200       18.1680938100
  H        18.1753285200       19.9833198400       24.5731125300
  H        18.4192022300       19.3467760600       25.9798845500
  H        18.2969941000       20.0867302500       15.0266305500
  H        18.9064595500       18.8911862500       14.3105972800
  H        20.8576807600       21.9590680300       19.1137187800
  H        20.5345868200       20.6852066900       18.2891441000
  H        17.1900188000       20.6158019100       22.2661926700
  H        17.1791412700       21.6989122800       23.2317653600
  H        19.5399498700       18.6062154300       24.1409139700
  H        20.4654325400       17.4093290700       23.6670417300
  H        16.0127188100       17.1936915500       15.7914594000
  H        17.2191157800       18.1951702600       15.2249909900
  H        17.0739298800       18.2214687900       20.4824694800
  H        17.2461607900       17.0966431700       21.5324895100
  H        20.9103279000       19.0544671000       19.7246651700
  H        20.4067055300       18.5629942400       18.4009871500
  H        18.2217769100       14.5412143800       20.1988560000
  O        18.7710556500       13.7946117700       19.8213314300
  O        18.2951613000       18.2929136300       17.9163467100
  O        19.9798102100       19.8582333500       21.5377289600
  O        15.9626050900       20.7986841600       20.8199034500
  O        17.1191804800       16.6780825600       23.2270789100
  O        17.5825231900       20.9321167300       18.5257431900
  O        18.8636569500       19.5251227300       25.1225862700
  O        18.0883112200       19.3503012600       14.4067023600
  O        20.1671651900       21.5805413200       18.4563253200
  O        17.5200054200       20.7534153200       23.1864473600
  O        19.7171245700       17.9171994600       23.3400082900
  O        17.0134658900       17.3604762800       15.7482502900
  O        17.4421724100       17.2815747900       20.6025686300
  O        21.1381413800       19.0751206100       18.7904119700
      42
 i =        1, time =        0.000, E =      -241.0237176997
  H        16.7033187200       14.8635296800       23.3020512900
  H        18.4349655800       18.5600881700       19.1524504200
  H        18.6353337800       17.0084668400       18.7932918100
  H        21.1965035800       18.0593378700       21.6758348000
  H        19.8332473100       17.8697154300       21.2659320800
  H        15.5966062600       21.7475348000       18.8574417700
  H        15.6177968500       20.6280018400       17.7912261700
  H        16.8981353900       16.8886482500       21.8741950100
  H        17.2076098500       18.2726235400       22.5644190900
  H        19.2328974300       19.8349746900       16.8929369100
  H        18.7408525000       18.4293056000       16.7609429600
  H        19.0487157500       21.3982090900       24.4550236400
  H        19.2043281100       20.4584617200       25.6660416700
  H        18.1140117300       17.6913469200       13.9966865800
  H        17.5905301700       18.7796920400       14.8377830500
  H        19.2334638000       20.4853748900       19.1827045800
  H        20.0458260000       21.7451237400       18.9657642400
  H        19.1819566900       21.0556233200       21.9175259100
  H        20.0241007700       20.2360020600       22.9536149100
  H        18.7824276600       18.3520696000       23.7013110700
  H        17.7170624700       19.2339130100       24.5876981400
  H        16.4710483800       15.9371303500       17.0939449300
  H        16.7272053100       17.1640642700       16.0883104000
  H        16.9941048800       20.1764229100       19.8018727600
  H        17.3725091400       18.9726172600       20.8135934900
  H        22.0825551400       19.5957015900       19.4415641600
  H        21.1113447900       18.4888031600       19.1836607200
  H        15.7712432500       15.0231376200       22.1493350400
  O        16.7234923400       14.8516142100       22.3506504400
  O        19.1066687200       17.8813710300       18.7814157300
  O        20.2226652500       18.1916353600       22.0634057200
  O        15.8839529700       20.8152035300       18.6783852100
  O        16.7884566700       17.8560040400       21.7432216900
  O        18.7919245800       19.2397703700       16.2279888000
  O        18.5522732800       20.9390758300       25.1547905100
  O        17.2808044500       18.0310492200       14.2755313300
  O        19.9759016700       20.8321457200       18.5979896300
  O        19.8291674100       21.1630810700       22.6592883600
  O        17.9039113100       18.3107213300       24.1920443700
  O        17.0414357100       16.6817938900       16.8488699500
  O        17.7609895200       19.7858271200       20.2819367200
  O        21.8541051500       18.6978071300       19.7304959400
      42
 i =        1, time =        0.000, E =      -241.0312232509
  H        16.2449175200       16.6378429600       18.7026029100
  H        18.5036051200       17.5425584600       18.2533911300
  H        19.2262526800       17.4698218700       16.8358027900
  H        18.5268623700       17.9375583500       22.1630359900
  H        19.6440311300       18.6723087900       21.4842570400
  H        17.9438618300       20.7572230700       21.1203669100
  H        17.6796778800       20.4800844900       19.4831793100
  H        16.2505014800       17.9902398800       21.9188346900
  H        16.9049693500       17.4494926200       23.2466853600
  H        18.8217957000       21.3018830700       18.0415411200
  H        17.8812267800       20.0447179400       17.8135829100
  H        17.2198687200       19.2522637400       25.1106090100
  H        18.2154099500       18.1654912800       25.2941925900
  H        15.6333956400       18.6072413900       16.4241403300
  H        16.8980151900       17.7547972500       16.4022504500
  H        20.8486119600       21.8607839100       16.7363435100
  H        21.2000894200       20.6430513000       17.7288795700
  H        18.9712506600       19.8391679300       22.9541027900
  H        19.3708943200       21.1918749000       23.4117550200
  H        21.0132750100       18.4924717900       25.8075927600
  H        20.4479712700       18.5204704000       24.3346285800
  H        20.2700399200       16.7383480500       14.8595840200
  H        18.9464500900       17.4112006200       14.5634431500
  H        16.2244986400       19.5746614500       20.8805353200
  H        14.8742429500       19.8352017700       20.6004035100
  H        21.8727878100       18.6113924200       19.3583467400
  H        20.9275949200       18.4697059400       18.2027785000
  H        16.8957980100       16.5169658900       20.0838669300
  O        17.0843814200       16.7764255600       19.1423010100