      21
 i =        1, time =        0.000, E =      -120.5184592095
  H        17.7479831400       19.8767292200       17.3044525900
  H        20.3546830000       18.7778371400       16.0134819500
  H        20.9242124500       19.0319849400       17.4379841700
  H        20.1626428100       18.3739006500       19.8789510700
  H        19.9797029800       19.7886543000       19.4119158700
  H        14.7893140700       21.1255465500       19.1621930800
  H        16.0891463900       20.3380184600       18.8123511700
  H        19.1559365400       21.3407195600       20.9530183300
  H        18.7760636600       21.6447802800       19.4638710300
  H        19.3679918100       21.8894031000       15.6069812200
  H        19.7593401300       20.5542141700       16.3498457800
  H        18.3057328200       22.7262943900       17.5332051900
  H        17.2791584200       22.0476942200       18.5082477200
  H        17.9384598500       18.7855010200       18.2758084800
  O        17.2117443400       19.1639485100       17.7617834800
  O        21.0270369900       19.2927484900       16.4251655600
  O        20.2442523500       18.8987529500       19.0631151700
  O        15.7616104500       21.1819784900       19.2473513000
  O        19.1371249400       20.9405686700       20.0874070100
  O        18.9891477300       21.1355504500       16.1856569900
  O        17.9491752900       22.7452281300       18.4438068400
      21
 i =        1, time =        0.000, E =      -120.4906095359
  H        18.5744170000       19.1536716300       17.5830788900
  H        21.3500633200       21.7422601300       16.3750973600
  H        21.6277987700       21.1597517200       14.9788992300
  H        21.4527643500       21.3097997500       19.9548038700
  H        20.4097707500       22.1383241800       19.4010636600
  H        15.3551760800       19.5279848700       19.4697965000
  H        16.1636471900       18.8464010200       18.3744839400
  H        17.7503224100       21.8182504600       19.6551428000
  H        18.4111542900       20.8344168000       20.6236446800
  H        21.0238992500       18.6644319600       18.2906296000
  H        20.2079442000       19.8904009200       18.7949805400
  H        17.0982722200       20.9168310300       17.1212562200
  H        15.6253485400       21.2717240600       17.6614586900
  H        17.9697609300       19.0318599700       16.0891198900
  O        17.7153010900       19.1772311000       17.0169154500
  O        20.9002872100       21.6850313100       15.4947144200
  O        21.0826210200       21.5062145700       19.0744484600
  O        15.3549895400       18.6706012000       18.9976704400
  O        18.4279557500       21.8171883000       20.3718900700
  O        20.1216730600       18.9672687200       18.5628054900
  O        16.5666868200       21.5349361400       17.7171910000
      21
 i =        1, time =        0.000, E =      -120.5078751731
  H        18.8590338000       18.4017274200       17.3198240600
  H        21.0228813600       18.8641214700       19.7565969600
  H        21.8704356800       20.0464848300       20.4150971100
  H        18.2343357200       18.2503511500       19.9663727100
  H        18.9848695600       19.6060576200       19.6200178500
  H        16.2808611500       20.2434019600       18.1338764900
  H        17.1540094000       19.7726785400       16.9618175000
  H        18.0338529900       21.2941394400       18.3887255000
  H        19.5536803700       21.5375816700       18.6262594100
  H        21.3152677000       21.3831579900       16.6492403400
  H        21.4418074200       20.4386809700       18.0428310100
  H        15.0915342500       24.0261440800       16.8587969800
  H        15.0025240700       22.7873956000       17.8426258200
  H        19.3268024500       19.3562203500       16.2995423600
  O        18.5329244700       18.8370179000       16.4964432800
  O        21.7813129600       19.4689443600       19.6105891300
  O        19.1053767600       18.5464821300       19.6002957500
  O        16.7144153500       20.5432025700       17.3206070900
  O        18.6881961400       21.3329925700       19.1087916400
  O        20.8258029800       20.9861171300       17.4140601700
  O        14.5749410900       23.6624876700       17.6528316900
      21
 i =        1, time =        0.000, E =      -120.4957748861
  H        16.7644466200       18.8265634700       15.6684592100
  H        21.1444439900       20.4835796800       18.6482712000
  H        22.2828990700       21.4920637300       18.6117065200
  H        19.8437021900       18.6947945200       19.3054971100
  H        19.3627482100       19.4101857700       20.5103615500
  H        16.3171827500       20.7537479900       17.5676693300
  H        17.1581344000       21.6711600500       18.5702888600
  H        16.9358473200       19.5282033800       19.6441022500
  H        16.5713488400       19.4372367600       21.1283124800
  H        20.7003432000       21.7341599400       15.0864907400
  H        20.6861850600       21.0730841100       16.4776621700
  H        18.6452755000       23.1516253800       19.0075174100
  H        19.7186475600       22.3162777000       18.3047985900
  H        15.6054030300       18.1883920900       16.4708558200
  O        15.9022048500       19.0145842800       16.0740400700
  O        21.4367483000       21.2745293800       18.1936456400
  O        20.1872217800       19.2966988700       19.9924021500
  O        16.3031564700       21.2508522500       18.4756360100
  O        17.3146249400       19.1851266700       20.5387158000
  O        20.3672277900       20.9036857100       15.5383536100
  O        18.7392104900       22.4043295300       18.3832417100
      21
 i =        1, time =        0.000, E =      -120.5182532018
  H        17.7346463600       19.1811751000       17.1581465200
  H        22.3350433500       21.4061627700       18.2673165200
  H        21.0726753700       20.6212963700       18.2554419300
  H        18.9362706900       19.1666928400       19.1084112000
  H        19.0316920600       20.5049941600       19.5724676300
  H        16.3852440900       18.7878082500       19.2021013500
  H        16.2028819600       18.7506691400       20.7664745200
  H        16.8185188700       21.0009119100       19.6030581600
  H        17.3761363100       22.4430056200       19.4587499500
  H        20.3557432500       22.3693310200       15.0917189200
  H        20.7571151700       22.1527845800       16.5771270800
  H        18.6566671400       21.3874326200       16.4472075500
  H        17.3872692200       20.9900157400       15.9175540300
  H        17.6460889600       17.5499767600       17.1772466900
  O        17.4804071800       18.3569731200       17.7027369900
  O        21.5746065400       21.2434653700       17.6908678800
  O        19.6698860100       19.7349156500       19.4732294000
  O        15.9755443700       19.2490671700       19.9691253200
  O        17.6388752000       21.5825398400       19.8681899000
  O        19.9853374100       22.5107039400       15.9850357100
  O        17.9913007600       20.6804189000       16.6579944200
      21
 i =        1, time =        0.000, E =      -120.5128544881
  H        18.1681334800       18.4987755700       16.0444086700
  H        21.3467994400       21.3254086400       17.7972945000
  H        20.5878744500       20.7485003200       18.9443742500
  H        21.1409770700       21.6123252600       21.1109689200
  H        19.7456998700       21.2010307800       20.6370034200
  H        16.5908162700       18.6793276300       17.4792014100
  H        15.4487828500       19.5620428400       17.9094069100
  H        17.5104221400       20.4312612900       19.4424880500
  H        17.1668757300       21.5880418500       20.3786708100
  H        17.7448098800       20.2611358600       16.8498748000
  H        19.4025325800       20.2793891400       16.8565847900
  H        19.0400307600       22.4437999200       17.2090667100
  H        18.3674040400       22.6699112000       18.5744206300
  H        18.0751578600       17.1013954700       16.9178471000
  O        17.5863153900       17.7872923800       16.3932974700
  O        20.6207969700       20.7028439300       17.9244380400
  O        20.6951961500       20.9490759400       20.5794576200
  O        16.2586196200       19.2347743500       18.2690050600
  O        17.9292284600       21.1781103700       19.8924705000
  O        18.5496964000       20.3211494100       16.2969975500
  O        18.6987655100       23.1791616300       17.7679383200
      21
 i =        1, time =        0.000, E =      -120.5203185004
  H        18.5770725400       19.2768093100       17.1321788900
  H        21.4460689000       22.7705747300       17.0305730900
  H        20.8782544400       21.5656361500       17.9915681700
  H        20.5170859800       20.4478188900       19.9776351300
  H        19.1662458100       20.8749714800       19.4515951400
  H        16.9639714500       18.0132789400       19.0759320200
  H        15.8534315000       17.5384955200       19.9906460000
  H        16.9509729300       20.3786663700       20.0512813700
  H        17.1919720200       21.5879572600       19.2302715200
  H        19.1031875800       20.7215166400       15.0796033500
  H        19.9706600700       21.2515518000       16.2340160900
  H        17.8115461200       21.8866589900       17.0105754300
  H        16.7987828200       23.0741048900       17.0050845000
  H        18.9962317700       18.2939480400       18.2297989900
  O        18.4755415900       18.3200031200       17.3706289600
  O        21.2959062200       21.8439409100       17.1232629900
  O        20.1152554800       20.5953938900       19.1376327100
  O        16.6304464400       18.1442913900       20.0394674100
  O        17.6227104900       21.1633847100       19.9935297000
  O        19.0482986700       20.8598852200       16.0471844400
  O        17.1574425000       22.3448862200       17.5795424500
      21
 i =        1, time =        0.000, E =      -120.5087864076
  H        17.8870444200       18.7802300600       16.4904704100
  H        21.9413900100       21.8644964300       17.4489526600
  H        21.2281887100       20.7138952600       18.3530276500
  H        20.1267489400       19.4672692100       18.7742116700
  H        19.5249690800       20.0116664200       20.1426350000
  H        16.7791083900       19.8655187900       18.5264578400
  H        16.2317860400       21.3502048700       18.4979949200
  H        17.3414966200       20.1329507100       20.8129962900
  H        18.1437439200       21.3113659600       21.3546469600
  H        19.6726862900       20.7817736200       14.9611644400
  H        20.1643658500       20.7715544400       16.3885110800
  H        17.8936939300       21.6619842300       16.5715873100
  H        16.8157951400       22.8168097200       16.2172743300
  H        17.0990632000       17.6581529100       17.2802104800
  O        17.6621911100       18.4556446600       17.4156171200
  O        21.5488023800       20.9940820100       17.3949550300
  O        20.3378828400       20.0907207600       19.5548589400
  O        16.3786364800       20.5422651200       19.1047307100
  O        18.1961795100       20.3588000100       21.2957866300
  O        19.2771616500       20.8460977300       15.8822361600
  O        16.9053953600       22.0153064500       16.7483196200
      21
 i =        1, time =        0.000, E =      -120.5218722676
  H        18.0289528700       18.8206867800       17.3752908000
  H        21.1021741400       21.9332536200       17.0095084300
  H        21.0496716400       20.6135072200       17.9043871600
  H        20.3872561500       19.6199106400       20.2978791800
  H        19.5109949900       20.6749696800       19.6779215400
  H        16.6040921400       18.8337482100       19.0396209900
  H        15.4928466000       18.7466582900       20.2082125100
  H        17.4700966400       20.7738035400       20.0601730800
  H        17.7707816000       22.0180459300       19.1933398400
  H        18.9622378200       20.0785840400       15.0295044300
  H        19.7346819900       20.6701469200       16.2635736100
  H        18.2790965100       21.9387892700       16.6425409400
  H        17.4952004200       23.1766308800       16.5666363000
  H        18.6849381500       18.3777423100       18.6216885700
  O        17.8187520500       18.2551326200       18.1617480200
  O        21.3712562200       20.9942350100       17.0263808500
  O        20.1308436900       19.9728345200       19.4272482900
  O        15.9327325900       19.3772744400       19.5845686200
  O        18.1197373600       21.4506068100       19.9345598400
  O        18.7960185700       20.4996628300       15.9762696900
  O        18.1543646600       22.8105919900       17.1553021600
      21
 i =        1, time =        0.000, E =      -120.5063610149
  H        19.3482459800       17.8919510600       16.2318391800
  H        21.9385703200       21.5431798600       17.9807889700
  H        21.2078278800       20.3351545700       18.5137259500
  H        20.0095298600       18.2789945000       19.9129487400
  H        19.3511649600       19.6621224900       19.6006162500
  H        16.5516343600       20.2179533800       18.6624165100
  H        16.0277939700       18.8255380600       18.7402183400
  H        17.6769104100       21.6618349100       20.0264541600
  H        18.8757054100       22.1999336900       19.2277535600
  H        18.4952572900       20.6289157700       15.9481632100
  H        19.5169342900       21.2332753900       16.8032833400
  H        17.6069254600       22.1216594200       17.2120385300
  H        16.7039822000       23.3048264900       17.4656034600
  H        19.2381923500       18.3468702700       17.7065388700
  O        18.6540229800       18.1799817700       16.8534872100
  O        21.1147178600       21.0794875600       17.8977944300
  O        19.9117928200       18.9416761300       19.1655512200
  O        16.1811038500       19.6180463700       19.3418224800
  O        18.6578740200       21.6427547700       20.0504044000
  O        18.8272566400       21.4778073200       16.1440459000
  O        16.8524630300       22.4221132400       17.8040182500
      21
 i =        1, time =        0.000, E =      -120.5006003453
  H        17.3292696500       19.8733765500       16.0005123500
  H        20.7471911400       20.4270511200       15.9706677300
  H        20.5359452300       20.5308850600       17.4376631400
  H        21.0254008300       19.6559460300       19.5906370400
  H        19.5645720300       19.9189674000       19.4488352400
  H        16.3284301000       19.0735832000       19.3099701000
  H        17.6924886700       18.4994165300       19.1533079000
  H        18.4103280700       21.0729819300       21.7653460200
  H        17.7730943700       20.1178290000       20.6777754900
  H        19.7652054800       22.2851782300       16.6208821900
  H        18.6161233500       23.2089161400       15.9604756400
  H        17.0200832500       21.6891806200       19.1604592200
  H        17.7122170200       22.0094308200       17.7280549200
  H        18.7248258500       19.3635424700       16.1856732300
  O        17.8639902900       19.0815447400       15.8229486100
  O        20.7503390300       21.0922537600       16.6339456500
  O        20.2298076500       19.2815272100       19.0620466600
  O        17.0856482200       18.7719804000       19.8550559200
  O        18.4934447400       20.7721192100       20.8135666600
  O        18.8697827200       22.7957323500       16.8168386600
  O        16.9883441400       21.4738369600       18.1911120200
      21
 i =        1, time =        0.000, E =      -120.4931962229
  H        17.9298227700       19.8561315400       16.9618103000
  H        20.7711991000       22.0409396900       20.3542191600
  H        21.6620623600       21.0333997800       19.7464585000
  H        19.5009639200       18.6427955800       19.5089538200
  H        18.9984556300       20.0994087500       19.2229957800
  H        14.6612281700       18.3308615300       19.7727757200
  H        15.5200487500       18.2181092600       18.4646095400
  H        16.9111232600       21.1916697900       18.6369076900
  H        18.1676301900       22.0137976100       18.2807221200
  H        21.1404575700       19.8362707900       15.9556256500
  H        20.5643409100       19.5646772900       17.4013834800
  H        19.3695936500       23.1681150500       16.7406136500
  H        19.6141493400       21.6375239100       16.5305887300
  H        16.6623632100       20.7295644400       16.4057888600
  O        16.9339439100       19.9451698900       16.8783071800
  O        21.7365527300       22.0250882700       20.0425288300
  O        19.8318169100       19.5239611600       19.1728140500
  O        14.7363822000       17.8129981200       18.9211570000
  O        17.7192693300       21.6286097300       19.1215406900
  O        20.4253590700       20.0756544200       16.5767414300
  O        18.8836511500       22.3433886900       16.5471178500
      21
 i =        1, time =        0.000, E =      -120.5161926436
  H        17.4694893900       18.3054482700       15.3317053700
  H        20.1224076500       21.8599727600       18.3448583700
  H        20.5447039500       20.2959976400       18.2018809300
  H        18.6379127300       20.0165033300       20.4053692000
  H        19.5200882300       19.5533969900       21.5854766000
  H        16.5092035300       19.1342682800       17.2505829400
  H        15.4774932500       19.2007163600       18.4358005000
  H        20.0495455500       22.3095940600       20.6450665200
  H        18.7896043400       22.4136915200       19.6828487400
  H        20.1692836300       20.6692132600       14.5429696800
  H        20.2136029400       20.6418959800       16.0718716900
  H        16.6067627500       21.4385895500       20.3860653400
  H        17.0329190100       20.3820533900       19.1828209800
  H        18.1827361900       19.6072270700       15.4874192500
  O        17.2438873600       19.2205286500       15.6196908000
  O        20.6643048400       21.2107243200       17.7637561800
  O        19.4441383400       19.4878630400       20.6152118900
  O        16.4132287100       19.1754082000       18.2500585000
  O        19.6428472000       22.7811295300       19.8830826400
  O        19.7223777500       20.2864751500       15.3036962400
  O        17.2715037300       21.2264293500       19.7257137500
      21
 i =        1, time =        0.000, E =      -120.4966281866
  H        17.6254068900       16.8124001200       17.8600696900
  H        20.8266644500       22.0197648500       19.3911969200
  H        19.8454438500       21.6929776200       20.4221064800
  H        20.1879096400       18.7588102100       18.6368032600
  H        19.0071785900       19.9408303200       18.7732468300
  H        16.0484034400       19.1641551800       18.1561861700
  H        15.7433985300       20.5848245800       17.4784662900
  H        16.9888765600       20.4492192200       19.0835713400
  H        17.5708713300       21.2530825600       20.1955689200
  H        18.9941886700       21.1411433600       15.3470083300
  H        19.7527280900       20.1697406500       16.4336235300
  H        19.6432247600       22.3317933400       17.0874917000
  H        18.9490155200       23.6700207900       16.8320337900
  H        18.0548982100       18.3114087500       17.6654086700
  O        17.2754685700       17.6690609900       17.5195899100
  O        20.7949425000       21.6936082000       20.3244150400
  O        19.5354254800       19.2931331200       18.1263405300
  O        15.7204071700       20.0527163400       18.3357020900
  O        17.8388270900       20.4783923400       19.6741131300
  O        19.8390120500       20.9567478300       15.7550924200
  O        19.4037207300       23.2151865900       17.5640586500
      21
 i =        1, time =        0.000, E =      -120.4932230750
  H        19.5335348700       18.9483486600       17.7084172300
  H        20.7737164000       22.2869754700       19.6112736600
  H        21.2887334700       23.0655629700       18.3081386400
  H        20.8522454600       20.5421735000       18.4912578100
  H        20.5563145600       19.4243648600       19.5406918300
  H        17.4915089400       19.0707618300       17.9374492600
  H        16.1091472500       18.5761016700       18.3989005200
  H        17.7816940200       19.7277093400       19.7454364800
  H        18.0469754000       19.4590548400       21.2492983000
  H        18.0146413600       21.5295643900       14.9423952200
  H        17.9732214100       20.3597291800       16.0102310400
  H        16.1978281400       21.7671011100       18.2667155100
  H        17.2140052600       22.3886634900       17.2161383300
  H        18.8051608000       17.4431792800       17.4185959700
  O        18.8600728500       18.4168146000       17.1658028600
  O        21.4572741100       22.3010211600       18.8610461000
  O        20.6252529900       19.5780210200       18.5617729600
  O        16.6342793200       19.4040873800       18.4826616100
  O        18.4900222000       19.8661729000       20.4669314800
  O        17.7387487300       21.3200118500       15.8273234100
  O        16.5139152100       22.5805087200       17.8403915400
      21
 i =        1, time =        0.000, E =      -120.5161259028
  H        18.2701511200       18.4517387500       17.7582013000
  H        21.1569039800       21.8044219600       17.7047594000
  H        20.1464179500       22.5126392300       16.6950394500
  H        21.8181237200       21.0982968700       19.8646289100
  H        20.3502922000       21.4780567900       19.5005174400
  H        15.6784511800       19.0175205900       19.9371259200
  H        14.3850686000       18.3126061500       19.7180539300
  H        18.5043980300       19.8643777700       19.3555955300
  H        18.6055648400       21.2833239800       18.8034682700
  H        18.9567360100       19.4277289600       15.5785487200
  H        19.8262733700       20.3718773000       16.5711638700
  H        17.7463974900       21.1367288800       16.8292631500
  H        16.4329976200       21.9552544000       17.3592434400
  H        16.9401610900       18.6092640800       18.4553197200
  O        17.9005521400       18.4824459400       18.6543903800
  O        20.8698243500       21.8288575100       16.7066066700
  O        21.3025096600       21.7469862200       19.2796949000
  O        15.0429200700       18.8712167900       19.2006595900
  O        18.8965007200       20.7678586700       19.5780424000
  O        18.9850310300       19.7483696100       16.4919745600
  O        17.4369444200       21.9746236700       17.3395469600
      21
 i =        1, time =        0.000, E =      -120.5188752886
  H        16.6949219900       17.4313547100       16.8591975100
  H        20.4542102900       21.7358459200       16.4303590400
  H        21.3266962600       21.4840003400       17.7131204000
  H        21.1805317100       18.9115934500       18.8525765200
  H        20.2474824400       20.2199237000       19.3311764000
  H        16.6455439400       20.9299871100       18.7426751900
  H        15.4708936400       20.3535426800       19.4592840400
  H        18.4983458900       21.0840227200       19.8525848500
  H        18.4099930300       19.5692196700       20.2186404300
  H        19.3743654800       20.2178726400       17.2975246600
  H        17.9744018200       19.5685049900       16.7660040800
  H        18.1428770600       21.7332516400       17.5607389000
  H        18.4942366300       23.0313635600       18.5070047900
  H        16.4630692300       18.8673465500       17.7420021300
  O        16.8707924700       18.4037385000       16.9410354200
  O        21.0626646200       22.1989795000       17.0542166200
  O        20.7938442600       19.7697642700       18.5364640400
  O        16.2591375100       20.0468923300       18.9956644600
  O        18.9071985300       20.3802502100       20.4518860200
  O        18.5438851200       20.4123571400       16.7469279500
  O        17.9615008200       22.2200955500       18.4489927900
      21
 i =        1, time =        0.000, E =      -120.5059934312
  H        18.4581131200       19.7146543300       16.0045171900
  H        21.5855578100       21.7786748500       17.7395451000
  H        20.7104463900       20.6016791900       18.3448764800
  H        20.6266935100       19.4069737500       20.9717795900
  H        20.1106438700       20.9020379700       20.6447481000
  H        17.3087840900       19.2790476400       17.9663063800
  H        15.9794495000       19.5871866300       18.7391137700
  H        17.5037459800       19.7519705300       20.6916347700
  H        16.8226701000       19.2744365800       21.8767455600
  H        18.2574547000       21.9794335100       15.7435383000
  H        19.6728643800       21.2836786600       15.6992500100
  H        16.9937841900       21.4942799100       17.8706636700
  H        16.1072357700       22.4537033500       16.9075258500
  H        19.1727568500       18.9624458600       17.1457193600
  O        18.3084675000       18.9854582400       16.6592479500
  O        20.8474423200       21.1476923700       17.5650977700
  O        20.7228440600       20.1377111000       20.2989318100
  O        16.9431157500       19.8290461400       18.7751800900
  O        17.6856225300       19.7369474200       21.6540294100
  O        18.8749184000       21.4362306100       15.1274730500
  O        17.0208572800       22.0750468600       17.0313994400
      21
 i =        1, time =        0.000, E =      -120.5026978160
  H        18.8882241500       19.7769105400       16.2983122500
  H        22.3502576200       19.3060506300       18.0594921200
  H        20.9951554700       19.8145018700       18.7644716500
  H        19.8736190900       18.7809196500       20.3345163700
  H        18.8524877200       19.7488403000       20.0767358200
  H        16.8667847100       19.7014852700       17.5940347700
  H        16.1788774100       20.9318626600       18.2089179100
  H        16.5630380200       19.9902692600       19.8955492400
  H        16.5423688600       19.9415181700       21.4774450700
  H        20.9899572800       21.1521280800       17.1862272100
  H        20.7937339900       22.6022911500       16.6211121100
  H        17.8046263500       22.4111764900       17.7898033500
  H        17.2820257000       23.8937014300       17.8556642300
  H        18.8345822100       18.3072048800       16.6397563200
  O        18.2434425700       19.0429267700       16.3289555400
  O        21.7410294200       20.0884902700       18.1742423400
  O        19.6522511100       19.3402726900       19.5650590900
  O        16.0998572800       19.9491191100       18.1218861400
  O        17.0518987100       20.2396286700       20.7198124100
  O        20.3624590600       21.6862851300       16.5764578600
  O        17.0314669800       23.0084251300       17.5962116800
      21
 i =        1, time =        0.000, E =      -120.5051798806
  H        17.3119227100       20.5707537300       17.4823752500
  H        21.0701229900       21.4230918800       17.6250490500
  H        20.1549080900       20.4662235900       16.5635121300
  H        21.7237302500       19.3957617700       19.6545890800
  H        20.3375330300       20.1248768000       19.4962669200
  H        14.7885625900       20.9243811800       19.0920887500
  H        15.9880132500       19.9639366900       19.2235353300
  H        18.1548418000       21.0556720300       20.5959336600
  H        18.2090732200       20.3224319000       19.1358580700
  H        19.9090576600       18.4983794300       15.7616795300
  H        20.2362609900       18.6395354000       17.3363657000
  H        17.7329694600       22.8685567700       18.1108077600
  H        18.6861197200       22.1240947300       17.1721698200
  H        18.1648832900       19.3776322000       17.3677144500
  O        17.3744959500       19.7315199300       17.9615565600
  O        20.4043310800       21.4272274700       16.8611046500
  O        21.0450499700       19.5432765800       18.9965062200
  O        15.3096986100       20.4254824600       19.7932670900
  O        18.7015137400       20.9744581700       19.7870481500
  O        19.6553626600       18.8345815200       16.5787670600
  O        17.7138620900       22.4566265400       17.2419818000
      21
 i =        1, time =        0.000, E =      -120.5113655547
  H        17.4176677900       19.3029300500       16.3020317200
  H        22.1085244300       22.2236135800       19.0759427600
  H        20.8899800800       21.1702120400       19.6785471500
  H        20.2963853500       19.3310699100       20.8901908000
  H        19.2269018300       20.4890582600       20.5574449800
  H        16.2363645700       18.8876831800       18.2964323700
  H        15.1196518400       19.7412618200       18.8494834400
  H        16.9460718800       20.7602894000       19.8977181000
  H        17.4774870900       21.9538737500       20.5586485000
  H        19.2327127700       20.6831128800       15.7880431400
  H        19.5197667500       19.0830753700       15.6051979600
  H        20.3051464700       21.8350444200       17.2988546100
  H        20.4369874100       22.7358352600       16.0414878700
  H        15.8444656700       19.2820006900       16.0429346900
  O        16.5375725400       18.8547686600       16.5916774900
  O        21.3037830100       21.6587255000       18.7935210200
  O        20.1800172900       20.2674500700       20.6969688400
  O        15.9710746100       19.2930113300       19.1568531000