       3
 i =        1, time =        0.000, E =       -17.2037861938
  H        21.2833781800       22.9506022400       24.6677906300
  H        20.9595041500       23.5414477800       23.3618843400
  O        21.2510558800       22.7133271500       23.7277394600
       3
 i =        1, time =        0.000, E =       -17.2010136410
  H        21.9438529900       22.2539610500       23.1944925800
  H        20.4502298100       22.4724805000       23.8544543700
  O        21.1309467300       22.7698908100       23.2150646600
       3
 i =        1, time =        0.000, E =       -17.2044924561
  H        21.1533636700       22.6849369600       22.4293266300
  H        21.5066360300       23.9425339500       23.2234793300
  O        21.4689914600       22.9513059200       23.3330346800
       3
 i =        1, time =        0.000, E =       -17.2034437202
  H        20.6552166400       21.8871296500       23.3189161900
  H        21.7637630200       22.6975575700       22.6191698800
  O        21.2168743300       22.6615448600       23.4776735000
       3
 i =        1, time =        0.000, E =       -17.2038176413
  H        21.1505176500       23.0699816900       24.1199563800
  H        21.8540235600       23.5725491200       22.8285484200
  O        21.1651196400       22.9966825200       23.1486889100
       3
 i =        1, time =        0.000, E =       -17.2039603011
  H        20.6870964300       22.2590743700       24.2426460800
  H        22.0275308900       22.3264087800       23.6054263500
  O        21.1374176600       22.7212911500       23.5455847600
       3
 i =        1, time =        0.000, E =       -17.2037462263
  H        21.5158308000       23.2339943700       23.1195457400
  H        20.2196694000       23.1495977900       23.9857775000
  O        20.8337836300       22.5982199200       23.3955193400
       3
 i =        1, time =        0.000, E =       -17.2039181208
  H        20.9413758800       22.9109159900       24.3437703200
  H        19.9919480600       23.0800881300       23.1356885200
  O        20.8970959000       22.8246354900       23.3427438800
       3
 i =        1, time =        0.000, E =       -17.2045034458
  H        21.7487511000       23.1985595500       23.0449954300
  H        20.5424164000       22.4700632200       22.4517451800
  O        21.0023356400       22.6409547300       23.2876500400
       3
 i =        1, time =        0.000, E =       -17.2043264194
  H        21.4363586100       22.1188973000       24.0273312900
  H        22.1835365100       23.2202060000       23.1758650000
  O        21.3106699000       22.9597432700       23.5486756100
       3
 i =        1, time =        0.000, E =       -17.2045473254
  H        21.5805288300       22.5125721200       22.3316374000
  H        20.9199330200       23.3235948900       23.4142555700
  O        21.3160606700       22.4583298000       23.2761138100
       3
 i =        1, time =        0.000, E =       -17.2043429280
  H        20.2570086100       22.4927436900       22.9166342200
  H        21.5002575200       23.3509715400       22.6763533300
  O        21.0233243700       22.9164355100       23.3933570700
       3
 i =        1, time =        0.000, E =       -17.2034502438
  H        20.9531005300       23.8106501800       22.8209281300
  H        20.1406457700       22.5076086200       23.1494338500
  O        20.9557822400       22.9596753500       23.3494253800
       3
 i =        1, time =        0.000, E =       -17.2020758337
  H        21.6632745700       22.5186451900       23.2949475000
  H        20.8872145200       23.7035270200       22.8991658400
  O        20.7523605000       22.8580761900       23.2483746700
       3
 i =        1, time =        0.000, E =       -17.2023171286
  H        21.5687917300       22.5437141200       23.4924140900
  H        20.4123147600       21.8037681900       22.9822659000
  O        20.6276615300       22.7364552700       23.1576175900
       3
 i =        1, time =        0.000, E =       -17.2036424476
  H        21.9122684600       23.3727032800       23.3280095800
  H        20.4188965200       23.5863467900       23.7321429900
  O        21.0432410800       22.9788820100       23.2221905800
       3
 i =        1, time =        0.000, E =       -17.2024744479
  H        21.8379912400       23.4342074200       23.5818431900
  H        21.8118321800       22.0198024400       22.9099855000
  O        21.2050722700       22.7730896700       23.1043493000
       3
 i =        1, time =        0.000, E =       -17.2039211725
  H        21.7327305000       22.6434858400       22.6414507900
  H        21.2337641300       22.6933330200       24.1518906700
  O        21.0432848500       22.9959446000       23.2458592800
       3
 i =        1, time =        0.000, E =       -17.2047162384
  H        21.2877193400       21.6158624700       22.3921057200
  H        20.4344293800       22.8649318900       22.7477830400
  O        21.1483775400       22.2836979000       23.0980319500
       3
 i =        1, time =        0.000, E =       -17.2048489893
  H        21.2482408200       22.2472128200       23.6288468300
  H        20.2771338800       23.0578582100       22.7632026700
  O        21.2023833300       23.0463780300       23.0447816600
       3
 i =        1, time =        0.000, E =       -17.2045126727
  H        20.4080437100       22.6666905800       23.4740937700
  H        21.0558721200       23.5165848100       22.4253379400
  O        21.2535809500       22.7890825100       23.0326765800
       3
 i =        1, time =        0.000, E =       -17.2038833030
  H        21.4379169800       21.8418844400       23.0781579100
  H        21.1506887100       23.3197782200       22.7798987900
  O        21.0601331900       22.6351175600       23.4500313300
       3
 i =        1, time =        0.000, E =       -17.2010713917
  H        20.4701315400       23.2250284100       23.2215304000
  H        22.0973032700       23.0729913500       23.5303860500
  O        21.3109297400       22.6653950200       23.0824356300
       3
 i =        1, time =        0.000, E =       -17.2019293444
  H        21.0812431900       23.1360151900       23.9915589200
  H        21.7594875700       22.6622401500       22.8399284900
  O        20.8288369900       22.8364250200       23.1264318900
       3
 i =        1, time =        0.000, E =       -17.2032065569
  H        21.3797982700       21.7494397800       24.1000854800
  H        20.9383201400       21.9414785000       22.7093473900
  O        20.9269029700       22.4361200700       23.5876498100
       3
 i =        1, time =        0.000, E =       -17.2031489803
  H        22.1373888100       22.2030428000       23.1282616200
  H        20.8653687900       22.7417526500       22.4500240700
  O        21.2571416900       22.5892960000       23.2905352400
       3
 i =        1, time =        0.000, E =       -17.2037184579
  H        20.8056981600       24.1550881200       23.7423451500
  H        21.4670145400       22.7416241300       23.9144691000
  O        21.0456661600       23.3632820300       23.2629929500
       3
 i =        1, time =        0.000, E =       -17.2042307927
  H        20.6740373800       23.5839084300       22.9290570200
  H        19.8995673600       22.8776567800       23.9861896000
  O        20.7925221600       22.9438370600       23.6302093900
       3
 i =        1, time =        0.000, E =       -17.2045252405
  H        21.6633869000       22.3535355700       23.2618512600
  H        21.4445493100       23.5932455500       24.1179839400
  O        20.9483691200       22.9895312300       23.5421317800
       3
 i =        1, time =        0.000, E =       -17.2020151516
  H        21.1271865900       23.7242856500       23.4647630600
  H        20.9822928000       22.6105002500       22.6283855100
  O        21.0271927400       22.7743913900       23.5884328700
       3
 i =        1, time =        0.000, E =       -17.2018252103
  H        20.3560711700       22.5239808400       23.0825679500
  H        21.7305308100       22.5558632200       22.6819555500
  O        21.1839291200       22.9593916600       23.3180005200
       3
 i =        1, time =        0.000, E =       -17.2039245571
  H        20.9186747300       22.6154386000       21.9253820000
  H        21.4098037400       23.4550144300       23.1634931900
  O        21.0333913200       22.5848431300       22.9274811300
       3
 i =        1, time =        0.000, E =       -17.2041911478
  H        20.0424236800       22.5065265700       23.1405968400
  H        20.7629002500       23.7787030200       23.4526044500
  O        20.9414205600       22.8544021900       23.3279869700
       3
 i =        1, time =        0.000, E =       -17.2023015057
  H        21.3078770000       23.4855356900       24.1008584700
  H        20.1619774300       22.4495662700       23.6252344300
  O        21.0060952600       22.8817546900       23.3254183500
       3
 i =        1, time =        0.000, E =       -17.2034886173
  H        22.0090506800       23.2890653700       23.0821632700
  H        21.1376684300       23.3748799000       24.2739896500
  O        21.1233988100       23.0751314900       23.3765595600
       3
 i =        1, time =        0.000, E =       -17.2034324252
  H        20.9325360700       22.0283073800       22.8709041800
  H        20.7195219700       23.5603740300       23.3221274600
  O        20.8947290600       22.6400667900       23.6582055000
       3
 i =        1, time =        0.000, E =       -17.2047988680
  H        20.1706392100       22.6740447000       23.4644570800
  H        21.1832333400       23.4282460100       22.6381598800
  O        21.0632642600       23.0452835900       23.5324115500
       3
 i =        1, time =        0.000, E =       -17.2018871811
  H        21.2829176000       23.5445345300       22.3611701900
  H        20.5788393600       22.3316875200       22.7000605500
  O        21.0787462900       23.0001034800       23.1899877700
       3
 i =        1, time =        0.000, E =       -17.2033422791
  H        21.0207879100       23.2122168000       21.9281856900
  H        20.6980126500       22.0844257800       23.0218282000
  O        21.0489707900       23.0083164200       22.9155755600
       3
 i =        1, time =        0.000, E =       -17.2047698062
  H        22.1047616600       23.0045779200       22.9258876700
  H        20.6999078900       23.5569713000       23.1874875900
  O        21.2015042400       22.7158375700       23.1946698800
       3
 i =        1, time =        0.000, E =       -17.2021428423
  H        20.1930546800       23.6719480300       22.6025038500
  H        20.9094318700       23.7917653300       23.9057696400
  O        20.7437653800       23.0849786200       23.1835867500
       3
 i =        1, time =        0.000, E =       -17.2036703382
  H        20.1551954000       22.7619130500       23.7870258500
  H        21.5563260000       22.2673149400       23.8950107100
  O        20.9739976700       22.8128137800       23.3170010100
       3
 i =        1, time =        0.000, E =       -17.2050683806
  H        21.3767613300       23.4746945200       22.8177894500
  H        21.3224986400       21.9692436100       22.9450848300
  O        20.9346915800       22.7755161300       23.3256246700
       3
 i =        1, time =        0.000, E =       -17.1994876785
  H        20.6852167800       22.1690332900       22.4994358600
  H        21.3460625300       23.5539855900       22.5796519500
  O        21.2129192400       22.7947853200       23.1759627500
       3
 i =        1, time =        0.000, E =       -17.2042549898
  H        20.3600379700       23.1128940200       23.2258710900
  H        20.9051709800       21.7785089700       23.8421226000
  O        21.1916269700       22.5742717000       23.3628174400
       3
 i =        1, time =        0.000, E =       -17.2045771338
  H        21.3438808200       23.5166776100       23.3181777100
  H        20.7427851000       22.3629689400       24.0913388300
  O        20.8940060800       22.6501239100       23.1854471200
       3
 i =        1, time =        0.000, E =       -17.1996212882
  H        20.5052296200       22.7603569600       22.4699611800
  H        21.4317319300       23.9492391300       22.7693209700
  O        21.0716813000       23.1554946300       23.2661261200
       3
 i =        1, time =        0.000, E =       -17.2027302703
  H        21.2433942700       22.6031283100       24.2014595800
  H        20.6296176100       23.6651679500       23.2936011300
  O        20.9559318100       22.6927236500       23.2853214700
       3
 i =        1, time =        0.000, E =       -17.2049009883
  H        20.3626668500       22.7356809700       23.6539385500
  H        21.0672797400       22.5876946900       22.2785317200
  O        21.1185636700       23.0599666500       23.1400483000
       3
 i =        1, time =        0.000, E =       -17.2041229116
  H        20.5670676300       23.8870034300       22.9079510400
  H        20.8217224900       22.4330280800       22.3534940500
  O        21.0032120500       23.0478854000       23.1169625400
       3
 i =        1, time =        0.000, E =       -17.2037653668
  H        21.9838162600       22.5166376700       23.2339470600
  H        21.1105438200       23.7282934700       22.9200457100
  O        21.0415662500       22.7564410800       23.1950525300
       3
 i =        1, time =        0.000, E =       -17.2018257751
  H        20.7894477500       23.7674141000       23.3292689700
  H        20.2600674900       22.4203260600       23.4353659800
  O        21.0188002000       22.8989939800       23.6729974100
       3
 i =        1, time =        0.000, E =       -17.2041621117
  H        20.7984927800       23.6211560400       22.8037474400
  H        21.1660910500       22.9029468500       24.0869407400
  O        21.4160852300       22.9249774700       23.1618438700
       3
 i =        1, time =        0.000, E =       -17.2042862846
  H        21.0071661800       22.0379777800       23.1973655200
  H        20.7325912200       23.2164603100       24.1627060500
  O        21.3650304100       22.9062971200       23.4480441600
       3
 i =        1, time =        0.000, E =       -17.2041767317
  H        21.3225757000       22.4202895600       24.1277411400
  H        21.5078459300       23.5025696100       22.9825643700
  O        20.9145450700       22.7682566200       23.2982546600
       3
 i =        1, time =        0.000, E =       -17.1986269290
  H        20.6964805200       22.2695725400       22.6410585900
  H        20.6347959700       23.4432821100       23.7275909800
  O        21.1326746600       22.6779108200       23.3368347700
       3
 i =        1, time =        0.000, E =       -17.2030976031
  H        20.9018782500       22.5481563400       24.2497671300
  H        20.6821696800       21.9414043500       22.9013931700
  O        21.1167490600       22.7549831600       23.2875335200
       3
 i =        1, time =        0.000, E =       -17.2017314418
  H        21.0271082000       23.5951969200       23.6676579600
  H        20.2648931600       22.2597447800       23.6421468700
  O        21.1351491600       22.6689587800       23.2775383000
       3
 i =        1, time =        0.000, E =       -17.2047653753
  H        21.0743892900       21.8303503800       23.6902963700
  H        20.5110266600       23.2350112000       23.8448412600
  O        21.1166628800       22.7187054300       23.2633414400
       3
 i =        1, time =        0.000, E =       -17.2043762184
  H        21.0508885700       22.6146248900       24.2719926800
  H        20.8697172000       23.5651642100       23.0471323400
  O        21.0955446000       22.6484921100       23.2769510900
       3
 i =        1, time =        0.000, E =       -17.2041814512
  H        21.9284562600       22.6273084900       23.7586072400
  H        20.5324284700       23.2082585400       23.8911599800
  O        21.0615048900       22.6701794500       23.2561193200
       3
 i =        1, time =        0.000, E =       -17.2034547310
  H        20.8543408000       21.8350596000       23.0893943000
  H        21.9966079500       22.8653095500       23.4333390300
  O        21.0369293200       22.7417014000       23.3271269000
       3
 i =        1, time =        0.000, E =       -17.2041472142
  H        22.0087049900       22.7819647100       23.4675828900
  H        20.5578350100       23.3583920400       23.7548520900
  O        21.0548482000       22.6509765100       23.2830429400
       3
 i =        1, time =        0.000, E =       -17.2042522181
  H        20.8165809500       21.8103820600       23.5588773000
  H        20.3451515000       23.2657835300       23.5010860500
  O        21.1433566000       22.7180247400       23.2932792900
       3
 i =        1, time =        0.000, E =       -17.2017816413
  H        21.4371145900       23.0491526600       22.5448290200
  H        20.1773426500       22.7793281000       23.1036321900
  O        21.1148331600       22.6706259200       23.3822094800
       3
 i =        1, time =        0.000, E =       -17.2027481147
  H        21.2733923200       22.4533762800       24.2122861000
  H        20.3217778800       22.3053128700       22.9009360000
  O        21.1160483200       22.7380270100       23.2899237800
       3
 i =        1, time =        0.000, E =       -17.2044618229
  H        22.0089078000       22.8232516100       23.3171496700
  H        20.9655417300       21.7710678100       23.2286664500
  O        21.0291482900       22.7483829500       23.3256725800
       3
 i =        1, time =        0.000, E =       -17.2039547633
  H        20.2903362800       22.1984527300       23.2576410200
  H        21.0527827100       23.2501265700       22.5532033600
  O        21.1319285400       22.6945612100       23.3719787100
       3
 i =        1, time =        0.000, E =       -17.2013093478
  H        21.3806948900       23.1323995500       22.6016796300
  H        20.2459321500       23.0673022400       23.6385288400
  O        21.1140664100       22.6472375300       23.3449270700
       3
 i =        1, time =        0.000, E =       -17.2030208839
  H        21.1513549800       23.1190421000       24.1996418200
  H        21.2011870100       21.7578354700       23.3624045900
  O        21.0683309200       22.7305806700       23.2616460800
       3
 i =        1, time =        0.000, E =       -17.2037514463
  H        21.8051000200       23.2757457400       23.1795787900
  H        20.2527168500       23.1055014400       23.3350543900
  O        21.0868997500       22.6357994500       23.3276372300
       3
 i =        1, time =        0.000, E =       -17.2029480312
  H        21.8417169600       22.7085526000       23.8674248800
  H        20.8245330300       23.4985011800       22.9074260500
  O        21.0485660700       22.6467743300       23.3112425000
       3
 i =        1, time =        0.000, E =       -17.2042373518
  H        21.5378807500       21.9488572500       23.0478163900
  H        20.2866114400       22.7171073200       22.8116422700
  O        21.1016001300       22.7438690200       23.3689158100
       3
 i =        1, time =        0.000, E =       -17.2021341637
  H        21.3241533500       23.6135947400       23.4603150400
  H        21.0490913300       22.1658403000       24.1468912100
  O        21.0670265600       22.6737160000       23.2588008300
       3
 i =        1, time =        0.000, E =       -17.2043229253
  H        20.2220237100       22.5450042000       23.7208675300
  H        21.7648625600       22.5118096200       23.9414021400
  O        21.0913686600       22.7192439700       23.2553316200
       3
 i =        1, time =        0.000, E =       -17.2035317683
  H        21.8177626400       22.3884931800       22.8186898900
  H        21.4756275900       23.1923962700       23.9805336000
  O        21.0090537700       22.6862251500       23.3097069300
       3
 i =        1, time =        0.000, E =       -17.2041556644
  H        21.6853778900       22.7006469100       24.0199022600
  H        21.1689280600       21.8500906100       22.9438653200
  O        21.0367178100       22.7511287700       23.2993400000
       3
 i =        1, time =        0.000, E =       -17.2043880579
  H        20.2643054100       22.6108258700       23.7685085300
  H        21.3119691000       21.9364611800       22.8011840500
  O        21.1172388200       22.7513461700       23.3241682700
       3
 i =        1, time =        0.000, E =       -17.2045734245
  H        21.6075557800       23.0260351600       22.6268039600
  H        21.6264066100       22.3146331300       24.0060504500
  O        21.0127979500       22.7013600300       23.3201888400
       3
 i =        1, time =        0.000, E =       -17.2044471363
  H        21.9809018100       22.8864008200       23.2449412700
  H        20.6548045600       23.5220155400       23.4353414700
  O        21.0504904400       22.6340877000       23.3172006600
       3
 i =        1, time =        0.000, E =       -17.2044170763
  H        20.6260629600       23.1254559700       23.9920814100
  H        20.8658429400       21.7826729500       23.3565359800
  O        21.1225543800       22.7286117200       23.2750929500
       3
 i =        1, time =        0.000, E =       -17.2010530514
  H        20.2269024000       23.2001636400       23.1776942900
  H        21.3234439600       22.6778845000       24.2128937400
  O        21.1188724000       22.6675029800       23.2724486300
       3
 i =        1, time =        0.000, E =       -17.2039700983
  H        20.5218431100       22.0410738700       23.7213375500
  H        21.5387995200       22.2829092600       22.5784479300
  O        21.0867217200       22.7654152000       23.3411734800
       3
 i =        1, time =        0.000, E =       -17.2047489848
  H        21.8467087400       22.1658751700       23.4853978900
  H        20.3144596500       22.1675281000       23.3455346200
  O        21.0803882000       22.7648216900       23.3077091300
       3
 i =        1, time =        0.000, E =       -17.2042545677
  H        21.0024723700       23.6310008600       23.5144445700
  H        20.8953625100       22.2409560400       24.0975315700
  O        21.0969792500       22.6678867500       23.2585003100
       3
 i =        1, time =        0.000, E =       -17.2039123903
  H        21.3231472000       21.8239224600       23.5697153900
  H        20.5269226000       23.1315479400       23.9812230200
  O        21.0999886400       22.7256290000       23.2623459300
       3
 i =        1, time =        0.000, E =       -17.2040540731
  H        20.2934097300       23.1688912900       23.5941265600
  H        21.0714631600       21.8645160100       23.7073453100
  O        21.1305579500       22.7207186800       23.2780633100
       3
 i =        1, time =        0.000, E =       -17.2035969990
  H        21.5846768100       23.2883997100       23.8348965400
  H        21.1845476000       22.9987352400       22.4670486600
  O        21.0420782800       22.6417289100       23.3410374200
       3
 i =        1, time =        0.000, E =       -17.2032878595
  H        20.8814401200       22.8701373500       22.4346036400
  H        20.3451167000       22.8203946100       23.9311420300
  O        21.1392724200       22.6793172400       23.3370177400
       3
 i =        1, time =        0.000, E =       -17.2041140767
  H        21.7409017700       22.1333971600       23.6797164900
  H        20.6874995400       22.1810480100       22.6510654200
  O        21.0635514800       22.7660161200       23.3392205900
       3
 i =        1, time =        0.000, E =       -17.2026438473
  H        21.6845031800       22.5532977100       22.5961428200
  H        20.3902247800       22.1401288500       23.1883059800
  O        21.0858342900       22.7421388000       23.3736417300
       3
 i =        1, time =        0.000, E =       -17.2035703926
  H        21.3656345100       21.8516222400       23.4511603400
  H        20.5027278600       22.9108806100       24.0269942900
  O        21.0988361400       22.7377867200       23.2669315800
       3
 i =        1, time =        0.000, E =       -17.2010463121
  H        21.6281586100       23.4292662700       23.6508173600
  H        20.3416634700       22.9581071100       22.8819582600
  O        21.0924437800       22.6354134800       23.3264941900
       3
 i =        1, time =        0.000, E =       -17.2036175893
  H        21.4782762300       23.4685118300       23.0272525800
  H        21.7774662800       22.0307707200       23.3854532500
  O        21.0114257300       22.6913667000       23.3340590600
       3
 i =        1, time =        0.000, E =       -17.2041962121
  H        21.9781135200       22.3751803900       23.1887999500
  H        21.0706451800       23.4080436400       23.9323601200
  O        21.0244665200       22.6734772700       23.2894236600
       3
 i =        1, time =        0.000, E =       -17.2000899679
  H        20.6634409900       22.0174954500       23.8944383500
  H        21.9559648000       23.0171470900       23.6625825200
  O        21.0515174400       22.7206408600       23.2619627100
       3
 i =        1, time =        0.000, E =       -17.2032301534
  H        21.5252084600       23.0450300100       22.5213849800
  H        21.1468314400       23.3489192800       23.9936489900
  O        21.0482012900       22.6349991800       23.3276119900
       3
 i =        1, time =        0.000, E =       -17.2040513253
  H        20.4827436300       21.9917223000       23.3464358900
  H        20.5760775900       23.4238102000       23.0750331700
  O        21.1498404200       22.6966432900       23.3335069500
       3
 i =        1, time =        0.000, E =       -17.2010718353
  H        21.9476217400       22.6441717700       23.5704878400
  H        20.9323734700       21.8171059600       23.1235452200
  O        21.0350992800       22.7567650900       23.3163343400
       3
 i =        1, time =        0.000, E =       -17.2042422429
  H        20.9265584200       22.7824216400       24.2421358800
  H        22.0059199300       22.5199148100       23.2521135800
  O        21.0317926400       22.7037750800       23.2659175500
       3
 i =        1, time =        0.000, E =       -17.2031075928
  H        21.2202154400       21.7457322500       23.1513157500
  H        20.6909437200       22.8101889200       24.1847269000
  O        21.0961397800       22.7508021900       23.2758852100
       3
 i =        1, time =        0.000, E =       -17.2048719513
  H        20.7152770400       22.1490596200       22.6558218700
  H        21.2807483400       23.5284087800       22.9342526700
  O        21.0907928700       22.6801403000       23.3858880600
       3
 i =        1, time =        0.000, E =       -17.2042509711
  H        21.4234232900       22.6650585200       24.2134207700
  H        20.5046384000       23.4171022600       23.2091512300
  O        21.0950748400       22.6546430800       23.2704335200
       3
 i =        1, time =        0.000, E =       -17.2037188800
  H        21.9528320400       22.3310460500       23.1506937900
  H        20.9020079500       23.5088907100       22.8689065700
  O        21.0366841600       22.6699041500       23.3588262500
       3
 i =        1, time =        0.000, E =       -17.2046321518
  H        20.4848666600       22.0382162200       23.6023621900
  H        20.7673649000       23.0746181900       22.5388955400
  O        21.1376548000       22.7157144600       23.3511613600
       3
 i =        1, time =        0.000, E =       -17.2022557274
  H        21.8294573600       22.9460651600       23.9133737000
  H        20.9158976400       21.7828668400       23.4675453200
  O        21.0435821400       22.7399018300       23.2730578200
       3
 i =        1, time =        0.000, E =       -17.2042076776
  H        21.8883598400       22.6288361800       23.8157209300
  H        21.2386246200       23.2435384400       22.6055291400
  O        21.0195379900       22.6678604300       23.3335207400
       3
 i =        1, time =        0.000, E =       -17.2036516110
  H        21.7406784400       23.3460820300       23.3323607900
  H        21.1220005300       22.1731415000       24.0579167200
  O        21.0361902700       22.6901103400       23.2724682000
       3
 i =        1, time =        0.000, E =       -17.2036260895
  H        20.5565597700       22.6516718400       24.0715363500
  H        20.5239673900       22.6835296800       22.6026830400
  O        21.1484728600       22.7017044600       23.3175826700
       3
 i =        1, time =        0.000, E =       -17.2032009834
  H        20.7647573500       21.8752511500       23.5234893200
  H        21.9915792400       22.6420436900       23.4329958500
  O        21.0428902500       22.7532357900       23.2997988200
       3
 i =        1, time =        0.000, E =       -17.2042066517
  H        20.3570271500       23.2805661100       23.1480213700
  H        20.7647834900       22.1201855800       23.9806470500
  O        21.1458718400       22.6975745300       23.2889506000
       3
 i =        1, time =        0.000, E =       -17.2031384663
  H        20.9675202800       23.5984588200       23.4355900400
  H        21.9820063800       22.4222809700       23.1509467600
  O        21.0307185200       22.6585128500       23.3231070200
       3
 i =        1, time =        0.000, E =       -17.2026614708
  H        21.4944995900       23.6615357700       23.9177515400
  H        20.5881187100       22.8771236200       23.1344608400
  O        21.2611531500       22.7103905800       23.7893234500
       3