      18
 i =        1, time =        0.000, E =      -103.2989431972
  H        21.6303568900       17.5002036100       21.5491220100
  H        21.6252356400       19.6786434600       22.6332990100
  H        21.5306561900       21.1135686900       22.0288829700
  H        22.2194603300       19.0866263700       20.2924587100
  H        23.6116700600       19.8614565800       19.9404340600
  H        19.4673467800       19.7667213500       20.1794144100
  H        20.5929181600       20.2315209600       19.3636954600
  H        21.0249947400       16.6592151400       19.6154643900
  H        20.5676754100       18.2721507300       19.5111978400
  H        19.5233776400       20.1430722600       22.1664995200
  H        17.9993982800       20.0110866900       22.0144463600
  H        22.1559575700       17.1044671200       22.9312828300
  O        22.0151414600       17.8881273300       22.4337309200
  O        21.0689791000       20.4949911800       22.6591055500
  O        22.6558272200       19.9964517500       20.2638204000
  O        19.8527172900       19.5960473300       19.2419583400
  O        21.2656387100       17.5456881800       19.8535245600
  O        18.8110478400       19.6206833700       21.6485902400
      18
 i =        1, time =        0.000, E =      -103.3098564010
  H        20.2050554000       17.2040616700       20.2236410600
  H        20.6148690500       18.5111526200       22.3431749800
  H        21.1120665000       19.8137870800       22.9636562700
  H        23.0569885500       21.2197494900       22.1970099200
  H        22.4712479000       20.0665467500       21.3016757800
  H        19.8974807500       19.6836502000       19.6874885500
  H        20.0515033800       19.0054186100       18.2614844500
  H        21.8284732600       18.6522517800       19.8593008000
  H        22.2737731500       17.7699755400       21.0262804900
  H        19.6895148900       20.1285692600       21.6056053500
  H        20.2501670000       21.4833325200       21.0754134100
  H        20.7105547800       15.7604741100       20.7621700100
  O        20.7118762500       16.7260871400       20.9453830500
  O        20.3750032400       19.1483848300       23.0117119100
  O        22.2774617500       21.0283565300       21.6056873100
  O        20.1650552100       18.8240744600       19.2237234900
  O        22.5614354000       18.6083283300       20.5322971200
  O        19.5651221900       20.8149334300       20.8398464300
      18
 i =        1, time =        0.000, E =      -103.2869192963
  H        21.0742289900       17.7209354100       22.2923832200
  H        20.2777878500       19.5573752900       23.4685492800
  H        21.1437367800       20.1141542500       22.1212660800
  H        23.0022839600       21.2685862800       20.8336259200
  H        22.4462245900       19.7912261000       20.4837484200
  H        19.3781863100       16.8772330200       20.2539424300
  H        19.5154636000       18.2982566300       20.7949591500
  H        22.2125969500       18.4260442600       18.8702600800
  H        21.9702318800       17.6444379300       20.0737259100
  H        20.2236058600       21.8973744000       20.5286838600
  H        19.2649330100       21.1621263700       21.3892490500
  H        22.1671252400       16.6000459400       22.5068382000
  O        21.3509157100       16.7842067800       22.0386459700
  O        20.3165262600       19.6520262600       22.4666796800
  O        22.2811844500       20.6897612800       21.0027216500
  O        19.7228222700       17.7820004200       19.9672411400
  O        22.6538766800       18.2387791800       19.6795061700
  O        19.2981998800       21.9996845500       20.8582948100
      18
 i =        1, time =        0.000, E =      -103.2897352200
  H        21.2645352100       16.9848820600       21.8347295300
  H        22.6760130000       19.9085067400       23.2884865900
  H        21.4455007500       20.2137633500       22.1928285800
  H        20.4579538100       20.7013017400       20.2471531200
  H        19.8475876700       20.9153518500       21.6875080000
  H        19.2643324400       19.4732101200       18.9038368900
  H        20.8490935800       19.2482931400       18.8254777100
  H        22.8521753000       18.1934203400       18.6142930400
  H        22.1328812200       17.7416188900       19.9459388500
  H        17.7979020300       19.2283760700       22.4927001700
  H        19.1363445200       18.7124750200       23.1527963200
  H        22.3359071200       17.9463310100       22.0528892500
  O        22.1937868200       17.0103024300       21.7947328700
  O        21.9898578400       19.5782162500       22.6954254400
  O        20.7004423400       21.0813793500       21.1750741800
  O        20.1363341200       19.9815141000       18.8555811500
  O        21.9704887800       18.1105769500       19.0500021500
  O        18.7974449000       19.3901564500       22.4661264800
      18
 i =        1, time =        0.000, E =      -103.3006225076
  H        22.2676170000       17.5774722400       21.2970319800
  H        21.5542718200       18.9666293500       22.7224735100
  H        20.9195043900       20.3491345900       23.0047807400
  H        22.3001628300       20.4546390500       19.5738869000
  H        23.5573287400       21.1928735700       20.0751720700
  H        18.8767042500       17.7440096600       19.3272754400
  H        19.3236243800       18.4317476800       20.8023817200
  H        21.3132954000       18.9640472000       17.7864205800
  H        20.6909945400       19.0258457500       19.2268751900
  H        19.3237582400       19.3184089600       22.6683679800
  H        17.9138985000       18.6622600800       22.8739689100
  H        22.7552762500       19.0955585200       21.2896682400
  O        22.7620862400       18.2649169200       21.7891434500
  O        20.7821687200       19.3961161600       23.2598192000
  O        22.6944564800       20.8604376700       20.4276247800
  O        19.6698913900       17.9842435700       19.9499022200
  O        21.3709280300       19.4573544600       18.6020477400
  O        18.4624398300       19.1566236500       22.1716061700
      18
 i =        1, time =        0.000, E =      -103.3055878902
  H        21.1338367800       17.3889481600       22.2394268200
  H        21.7567544900       19.1069429100       24.0334724200
  H        21.7702868500       19.5930412400       22.4989513900
  H        22.9566949200       21.0158183200       21.1587839700
  H        22.1783324700       19.8295087100       20.2871005000
  H        19.1599385100       19.8380384100       20.0944812900
  H        19.5581585800       18.4173752500       20.4608557400
  H        22.3631333600       17.7550085800       19.6755277100
  H        21.2622850800       18.7989036300       19.1261624500
  H        20.3861198000       21.1242109300       21.0495348000
  H        19.2863203700       20.8278759300       22.0067336900
  H        20.8356237400       15.8847712400       21.8908370200
  O        20.9516601700       16.7674301100       21.5166292300
  O        21.3214892200       18.9722296000       23.1901553300
  O        22.1934572500       20.4476625800       21.1631037300
  O        19.5273496700       18.9654100300       19.6935129500
  O        22.2501609300       18.6669123400       19.2335607400
  O        19.3812300900       21.3127860900       21.1591317700
      18
 i =        1, time =        0.000, E =      -103.2941446278
  H        20.6431199100       16.9770056800       21.8417702000
  H        20.9857898000       19.0780917700       24.0177117400
  H        20.1243067000       19.7721145800       23.0307854700
  H        23.6085558500       20.5626210100       21.6992294200
  H        22.8662517800       20.0029699300       20.3638895100
  H        19.2361792900       19.7500078000       20.3952685600
  H        18.5204413200       18.9700051300       19.3430641100
  H        21.7489896400       18.0761489700       20.1692189700
  H        22.7605289500       18.0118291800       19.0446485800
  H        20.3242878200       22.1558434700       20.6843756200
  H        21.4767385500       21.0767686500       20.9375471700
  H        19.8291849400       17.3769953800       20.6638049400
  O        20.4398483100       16.6111093400       20.9412840700
  O        20.4314378200       18.8580391300       23.2470126700
  O        23.0072597000       20.8310114800       20.9338178600
  O        18.7229647900       18.9455442200       20.3136815000
  O        22.5570392800       18.5581662900       19.8497507000
  O        20.4997554600       21.1880641700       20.8173809800
      18
 i =        1, time =        0.000, E =      -103.2937411912
  H        20.4748563700       17.1381881600       22.6696131100
  H        20.2496275400       19.5525031700       23.8203234400
  H        20.5975795000       19.2590397600       22.3462965600
  H        23.3364052900       21.1939633300       21.6261541800
  H        22.3829909300       20.1215577600       21.0005478100
  H        19.7678523600       19.7202876200       19.1957514300
  H        20.2378364100       18.7632656200       18.1236417700
  H        21.9463340800       17.4661694900       21.0246980100
  H        21.1140780600       18.4831656600       20.1583894000
  H        20.9423739600       21.8364862700       20.2010827700
  H        19.5023017100       21.7580600600       20.2360475900
  H        21.6582648100       16.2460987100       23.0211078800
  O        21.0331778500       16.3757939600       22.2656892100
  O        20.0459744900       18.9316890300       23.0728317700
  O        22.3539451300       21.0376907500       21.4254617700
  O        19.9736323400       18.7604455800       19.0120278000
  O        22.0250051000       18.3769442300       20.6204530900
  O        20.2211441200       21.5264839600       19.6288219000
      18
 i =        1, time =        0.000, E =      -103.2816498015
  H        20.9868733500       17.5845681700       22.4945875900
  H        20.8662102400       19.3804306200       23.3725297000
  H        21.2005866200       18.6425598300       24.7085368200
  H        22.3421282900       19.2479895500       20.0416286300
  H        22.5801233600       20.7427528000       19.6496279500
  H        19.6946122400       21.2878400100       18.2981993500
  H        18.3034616400       20.8445565800       18.3090135200
  H        21.2598356700       17.4661096300       20.0945444200
  H        20.9296115300       18.1068963600       18.6529423900
  H        21.2679696300       20.5626920800       21.7188214000
  H        19.7158539800       20.3173970500       22.1157637900
  H        21.8463676100       16.2817666400       21.9421009300
  O        21.2265610000       17.0066334700       21.6993936000
  O        20.6041029600       18.6682427900       23.9520542100
  O        22.6772798800       20.1177131600       20.4070720500
  O        19.1396884500       20.4588477700       18.4305704800
  O        21.5877269700       17.9889768700       19.3326977300
  O        20.4941871800       20.8362509400       22.3311029700
      18
 i =        1, time =        0.000, E =      -103.2951186485
  H        21.1755648400       17.8770529800       21.9845517200
  H        20.9093698900       19.5916230400       24.0223331000
  H        21.1749990700       20.1279451100       22.5223027000
  H        21.9703105900       21.4518282300       20.6285376900
  H        22.7706369200       20.1206287700       20.9183801800
  H        19.4223804200       19.3508398600       19.6923687300
  H        19.6967864300       19.9431162900       18.2289154000
  H        23.1727905100       18.0885007200       19.9307725000
  H        21.9603392200       18.8781207800       19.3551223900
  H        17.8859419800       18.8247736400       21.6664776000
  H        19.1787090100       19.4153039600       22.1361946300
  H        22.0506633500       16.9171907500       22.5696773600
  O        21.6168040900       17.0655675100       21.7149358100
  O        20.6514393500       19.4752338400       23.1037839300
  O        22.2163240800       20.8117736700       21.3329013600
  O        19.8476414800       19.1558884900       18.8300294700
  O        22.9914632400       18.9359271700       19.4510309300
  O        18.3822566600       19.6246278300       21.5779884000
      18
 i =        1, time =        0.000, E =      -103.2970951622
  H        19.8881407800       16.8172790100       21.2588476000
  H        21.2476189300       20.4668016500       21.8718137000
  H        20.3171211100       20.0237261700       23.0472284000
  H        23.6689606000       20.9164037000       21.4655352500
  H        23.1972441300       19.4343506200       21.2741903100
  H        19.4219198500       19.5381974500       19.7529561300
  H        20.9432694900       19.6521610500       19.5897358500
  H        24.2631358500       17.2929256700       21.5504582800
  H        22.6945769900       17.1471349200       21.5295663400
  H        17.2707974300       20.7058423200       21.3801877700
  H        18.7429054200       20.4558160800       21.4029660100
  H        20.6287795800       17.6092455200       20.1891045900
  O        20.7629499200       16.8606035300       20.7848839600
  O        20.2745246000       20.5169540500       22.2168947600
  O        22.9640513700       20.3808584300       21.1503199600
  O        20.1849947400       19.0459137200       19.4576525500
  O        23.4588280300       17.8172730700       21.5939897600
  O        18.0028700200       20.4806212900       20.7655380400
      18
 i =        1, time =        0.000, E =      -103.2822064187
  H        21.7760816900       16.4670315700       21.3025410500
  H        20.0348488700       18.7583700500       22.5864193800
  H        20.9465057100       19.9084203600       23.1548912000
  H        23.9065032500       19.7463231700       22.0273940200
  H        22.8897869800       19.7823682400       20.9746093700
  H        20.3906806500       16.7544844900       18.8342834700
  H        20.8266111900       17.6043311700       19.9456061900
  H        21.7484575000       19.2431033100       19.1628034800
  H        21.8861282300       20.8059731000       18.8359219800
  H        18.0506221600       22.1700162700       21.3281571300
  H        18.5572733700       20.8898577100       22.0506230600
  H        21.9497649900       17.8756995100       21.9509746400
  O        21.2886112700       17.2282902100       21.7222736600
  O        19.9878065800       19.5796985800       23.1647398800
  O        22.9985564500       19.4870104500       21.9138268900
  O        20.7220268500       17.6375817500       18.9902308600
  O        22.4154861200       19.9884478400       19.1245625900
  O        18.1929647000       21.1845915400       21.1896306900
      18
 i =        1, time =        0.000, E =      -103.2794137450
  H        20.9841319600       18.5514715700       23.1843702700
  H        23.3808524800       18.9072871600       23.7371462800
  H        22.6934401900       19.0137873900       22.4349068700
  H        23.0680572600       19.9597642400       20.5009771100
  H        21.9581094200       19.3311319100       19.8020435500
  H        19.2846128200       19.7288300600       19.9488082900
  H        18.0844421800       18.8964658800       20.5136850100
  H        21.2908563800       16.9092950400       19.7474369200
  H        20.0106651400       17.8192084000       20.2055331100
  H        20.3099964900       21.3279359600       21.2000622600
  H        20.9097932800       21.1461157400       19.7795024000
  H        20.7055213800       17.6160709500       21.9984455900
  O        20.4270664100       17.8397636200       22.8651216700
  O        22.8565808800       19.5416344200       23.2828683600
  O        22.6057853300       20.0237406500       19.6193116600
  O        18.7012980400       18.9193854700       19.7420120000
  O        21.0015153600       17.6714163900       20.2496965100
  O        20.0310225600       21.1599956800       20.2896331800
      18
 i =        1, time =        0.000, E =      -103.3033500900
  H        20.2939243000       17.4353682400       22.7647501000
  H        19.9688854300       19.9955259800       22.7645487100
  H        19.0433616800       19.3764480200       23.8767522500
  H        22.9720298300       20.7055814100       21.1496198000
  H        22.7927962600       20.5361433500       19.6698695900
  H        20.1030219000       19.0916601100       20.3115973800
  H        20.2394690800       17.5109814900       20.4016600000
  H        23.4518043000       18.4382738900       19.0139267800
  H        21.9085264700       18.5779697500       19.3159815200
  H        21.0185692800       20.9008930000       21.0200047100
  H        19.6069308700       21.3335405000       20.6073757700
  H        20.0583321800       15.9255066700       22.7433256300
  O        20.2594236800       16.6621185600       22.2055471500
  O        19.8716434800       19.1999470900       23.4027226800
  O        22.4642339600       21.1219585800       20.4248514800
  O        20.3460863600       18.3108636800       19.8178242600
  O        22.7164139000       19.0037586900       18.8802284200
  O        20.0425101300       20.8181939000       21.2805179200
      18
 i =        1, time =        0.000, E =      -103.2826238317
  H        21.9359688700       17.9658871400       22.8861188900
  H        19.5124803300       18.5786199500       23.6982389900
  H        20.3048992600       19.6095263200       22.8680997100
  H        22.3336156900       21.3252197700       21.8531143300
  H        21.5601924700       20.2100037800       21.1037037200
  H        19.3584961600       18.6259243900       19.7401261300
  H        19.7371866300       17.7510248800       20.8009508400
  H        22.7973252900       18.6456523000       20.4868097700
  H        21.7083442500       18.5537553100       19.3404356800
  H        19.3987566200       21.3201773500       18.9266459800
  H        19.7777696800       21.1420957200       20.4046520300
  H        23.2863535500       17.4903763500       22.9746737500
  O        22.6858789800       17.8782575000       22.3340820500
  O        20.0414033300       18.6549273500       22.9219318300
  O        21.4194660500       20.9508071900       21.6493020200
  O        19.7949292500       17.7681459200       19.7928079600
  O        22.5052723300       19.0303452400       19.5603413000
  O        19.2373751400       20.7467584800       19.6622391400
      18
 i =        1, time =        0.000, E =      -103.2820458606
  H        20.2970456100       17.8635573300       21.9195768400
  H        20.1676407000       19.6509634500       23.9246956400
  H        21.4517527100       19.8090516400       23.0148058000
  H        22.9700468700       20.8248699000       20.9231640400
  H        23.4161310000       19.7332491100       21.8661312000
  H        20.2865501800       20.3207810300       19.2755153800
  H        20.2737513500       18.8497511900       19.5345442800
  H        22.6126584500       18.7697820300       19.5928967200
  H        22.8566978900       17.3679382000       19.0431541400
  H        18.2175096700       19.6242258000       20.8373692400
  H        19.1713647400       19.9271068900       21.8860715500
  H        20.6112867300       16.7962876600       20.8124191600
  O        19.9731614200       17.5157303700       21.1034039200
  O        20.6438276500       19.2802053600       23.2050247800
  O        22.7397465800       20.4655146500       21.8089035200
  O        20.6580513800       19.4723424900       18.8913069100
  O        23.2060065500       17.9994970400       19.7027113300
  O        18.4244030700       20.4018424100       21.3639167200
      18
 i =        1, time =        0.000, E =      -103.2974728254
  H        21.3442207000       17.5929913500       22.1525365000
  H        20.7663306900       19.2308248600       23.9328947800
  H        21.4579966900       19.6883718200       22.6173687700
  H        23.0943792000       21.2746793500       21.4134179000
  H        22.5334003900       20.0544944900       20.5849145600
  H        18.9457393800       19.4618804700       20.5600172800
  H        18.1662532800       18.1521865400       20.8977903600
  H        22.0336108300       18.2302616700       20.4379568600
  H        21.8741574600       18.5346175500       18.9002491600
  H        20.6733237100       20.8691823900       20.6053346600
  H        19.7229346200       21.9525388100       19.9306931900
  H        20.2923772400       17.2600445600       20.9860000100
  O        21.1867423600       17.0087140600       21.3102156400
  O        21.2148212300       18.9091400100       23.0957461200
  O        22.3161295900       20.7069404800       21.3174940300
  O        18.8540521200       18.5003104200       20.3141512700
  O        22.4234589800       18.7217849100       19.6376809700
  O        19.7399438300       21.1140674400       20.3754813600
      18
 i =        1, time =        0.000, E =      -103.2900867789
  H        21.0252085200       17.5658615600       19.7153226900
  H        20.6190908300       18.1951303800       22.0434785300
  H        20.1848608100       19.2155866700       23.1819889200
  H        21.8977249900       21.6595588800       20.1575906200
  H        21.9591373700       20.9161307400       21.5629955700
  H        19.1612856900       18.7086996200       20.5551837600
  H        18.9578739600       17.0319471500       20.7338911600
  H        22.8169359100       18.9693388300       21.7867222800
  H        23.0225561900       18.8704730900       20.3387095500
  H        19.8151819800       20.7718999600       21.0819498300
  H        18.3226089200       20.9339588200       21.4393896600
  H        22.1876212400       17.5882007300       18.6482974400
  O        22.0613961600       17.3509963800       19.5727867100
  O        20.8705416500       18.5605997300       22.9610139900
  O        21.4078857700       21.6009973800       20.9728585200
  O        19.3836362100       17.7670702300       20.1949791500
  O        23.0320943700       19.5613316500       21.0644037500
  O        19.0384798100       20.2381124700       21.3964744300
      18
 i =        1, time =        0.000, E =      -103.2774690041
  H        21.1743952600       17.7324640700       22.9149081600
  H        22.3506911900       19.5195246400       23.4303181800
  H        21.8972238500       20.0041297500       22.0561058900
  H        23.3243302600       21.2063507400       20.8326884800
  H        22.4448867100       20.1511644100       20.0662193500
  H        19.1583473300       17.5982858600       19.0257334800
  H        19.0239756700       18.8882067800       18.2570572600
  H        22.7338475700       18.3640661100       18.7858920900
  H        21.3004474600       19.0191726800       18.6552140700
  H        19.6778785900       20.1061375000       20.9396679900
  H        19.4413284700       20.3312581900       22.4087475100
  H        19.8035952300       17.0210853400       23.1295289300
  O        20.7747870800       16.8859713500       23.3164827700
  O        21.6005977200       19.3607666400       22.7638909900
  O        22.4683728200       20.8213005600       20.8600996200
  O        19.5637533100       18.4867405500       18.9496685100
  O        22.2504161600       19.2415898100       18.7371260800
  O        18.9873633200       20.3132920800       21.5820881400
      18
 i =        1, time =        0.000, E =      -103.2957520764
  H        21.5127503700       17.9085577800       22.0790472400
  H        21.3471627400       19.9239202400       23.8945156000
  H        21.6143858500       19.9501452100       22.3296209000
  H        20.8181580700       20.5492471100       19.5433439000
  H        22.1730561700       21.0469455400       20.0845864400
  H        19.2163962100       17.6698288100       19.3134312900
  H        18.9004508100       18.5446218500       20.4769174900
  H        22.7813509600       18.4757635700       20.5022730300
  H        24.1414558400       19.0826287700       19.9390524100
  H        19.1415017900       19.7644249900       22.1805044700
  H        19.7442112700       20.7398578800       21.1333124100
  H        20.8286679200       17.2469903800       20.9739911600
  O        21.7268295400       17.2981199100       21.3539816900
  O        21.2667446200       19.4017007300       23.0848656000
  O        21.2308359000       21.3244104500       20.0982965100
  O        19.2470332300       17.6521496300       20.2805170100
  O        23.1936882100       19.2588661900       20.0379393700
  O        18.9871775300       20.1138618800       21.2309918400
      18
 i =        1, time =        0.000, E =      -103.2920912650
  H        21.7400989800       17.3587228100       21.7774294200
  H        21.5697267500       19.0637333200       23.5115961600
  H        20.4966565100       19.2023154400       22.4258782200
  H        21.6881345300       21.1160246300       22.3347009300
  H        21.9378146600       20.4446448100       21.0588470500
  H        19.3492346400       19.2766116800       19.7647409400
  H        19.1192373600       17.7978393600       19.8095175100
  H        22.7849729500       18.3341844200       20.3996805500
  H        23.9706906800       19.4446663100       20.3229865200
  H        18.0354932700       20.5939329300       21.0949271900
  H        19.5083313700       21.1669237800       20.7317495700
  H        21.2381807900       17.2902522400       20.3057003600
  O        22.0482942600       17.0271519900       20.8955313600
  O        20.9922475400       18.4972016900       22.9615218700
  O        21.1646070500       20.8634003100       21.5748784700
  O        19.8211714900       18.4575578500       20.0065126500
  O        23.0575718300       19.3128323600       20.2588812500
  O        18.6176213900       20.8791879000       20.3207711700
      18
 i =        1, time =        0.000, E =      -103.2964745542
  H        22.1362079200       17.9837801700       22.0349324800
  H        20.4805758100       20.3630405700       23.7965751500
  H        19.7652204600       19.9618131400       22.5755244600
  H        21.8855809400       21.4036982100       21.5290913800
  H        22.3445102700       20.5174308700       20.3650668900
  H        19.0875582100       18.3116803100       20.6426842600
  H        18.2781185400       17.0888706100       20.1234212400
  H        22.9382275300       18.3278860000       20.2035201300
  H        23.7930185800       19.2477457900       19.0688445100
  H        19.9285034500       20.8139241300       20.5890237000
  H        18.4742319900       20.6649256800       19.8764540200
  H        21.3441537300       16.9682374300       21.2166089500
  O        22.2728008900       17.1927634000       21.4894699900
  O        20.5793722200       19.6817667800       23.0986440000
  O        21.6583077100       21.2114046900       20.6200751700
  O        19.1523683300       17.3355394400       20.4920241900
  O        23.1016457200       19.1839840800       19.7349282800
  O        18.9989304700       20.3963911000       20.6784695500
      18
 i =        1, time =        0.000, E =      -103.2718108890
  H        21.2339371400       17.5321335800       22.5488193400
  H        20.7497554300       19.4812188100       24.2480085300
  H        21.2414999700       20.3200302800       22.8108058200
  H        22.1668196700       21.7655822500       21.1238329900
  H        22.6730949000       20.2994894400       20.9975314400
  H        19.1293502300       17.6766148200       19.2645956800
  H        19.1387163800       19.2082665600       19.4577977600
  H        22.8546791400       17.5837247500       20.5952696200
  H        21.6824550200       18.2063865700       19.7174924400
  H        19.4369215800       21.7376782400       19.5339510400
  H        18.1048289500       21.5231444600       20.3258724300
  H        20.9810356600       16.2173650000       21.6733817700
  O        21.6564993900       16.7357007400       22.1393672100
  O        20.5763420800       19.6323660100       23.3126318500
  O        22.3311976800       20.9148558900       21.6606292600
  O        19.6895955900       18.4527901200       19.0586762800
  O        22.6612393400       18.1718413700       19.8612128100
  O        18.9155126900       21.1006838000       20.0637291600
      18
 i =        1, time =        0.000, E =      -103.3011106905
  H        21.7388833700       17.6970286800       21.6669517800
  H        21.1619111800       18.9769855700       24.4661169500
  H        21.1251329800       19.7562967800       23.0369158500
  H        21.4966700300       22.2155658800       21.9404989100
  H        21.8429656200       20.9551576900       21.1107487200
  H        19.3210776200       17.2169374000       18.8838081600
  H        19.0910944900       18.2720624400       20.0978503300
  H        22.2841436700       18.9809924500       20.1510870600
  H        22.7510411500       19.5629994000       18.8288170700
  H        19.7843600200       20.5358009200       21.1778441000
  H        20.1141511100       20.0927829200       19.8411929400
  H        21.3500647200       17.1272697000       20.3289002900
  O        22.1265244100       17.4943242600       20.8083901100
  O        20.9666713100       18.9036445700       23.5225114200
  O        21.3505465600       21.2199248100       21.9134366900
  O        19.5572126400       17.3879795400       19.8464644800
  O        22.3227366800       19.8719705600       19.6684133300
  O        19.3385753400       20.1405853900       20.3853310400
      18
 i =        1, time =        0.000, E =      -103.2923660786
  H        22.1325354100       17.4753812300       20.9797469200
  H        21.3872354800       18.3018188800       23.6788200100