      33
 i =        1, time =        0.000, E =      -189.4123794622
  H        22.4081041600       18.5309255300       17.1747505000
  H        22.7592813800       23.9305440400       20.8110978500
  H        22.3342122700       22.4871905500       21.0894370700
  H        22.4755799300       18.6932726500       22.8886032400
  H        21.6938918700       18.2778568400       21.5036375100
  H        18.5900972200       22.7761686600       18.1777577100
  H        19.0417691400       22.6473432000       19.5938552100
  H        21.5775255300       17.6773982000       19.3778015200
  H        20.2722633300       17.3609707800       20.1652495800
  H        19.4437602300       22.3821124300       21.8568655700
  H        19.9783811200       23.6690766100       21.3962662800
  H        17.2842755300       20.3710076700       20.9888039600
  H        17.7312348400       20.5963390000       19.5055631300
  H        22.1704609200       22.0730603400       18.3003352300
  H        20.6479017200       21.4956181200       18.3847083800
  H        23.4294849000       20.3758489700       20.2029888700
  H        22.8518457600       20.1497411800       21.6120774800
  H        20.5016160600       20.3542892700       22.6708093300
  H        19.8893512700       21.2978074600       23.9242889600
  H        18.0375725400       18.5388770400       20.1713290400
  H        17.8843691600       16.9321184900       20.3075363400
  H        22.3461690900       19.6554620800       18.2337127900
  O        22.5756792600       18.6785793300       18.1348555800
  O        21.9353001200       23.4169552200       20.9206427600
  O        21.7743269100       18.9764752700       22.2841099500
  O        18.9255643400       22.1124184400       18.8145291000
  O        21.2823061400       17.1888772500       20.1996012700
  O        19.1353845900       23.1270616100       21.3022989100
  O        17.2777428600       19.9553082100       20.0915232700
  O        21.6020882400       21.2778779600       18.1233988500
  O        23.2635326400       20.8635814200       21.0808177300
  O        19.8058286600       20.9988718800       22.9226603400
  O        18.5165496800       17.6420686900       20.0481324000
      33
 i =        1, time =        0.000, E =      -189.4016872248
  H        20.6112993500       19.7392302800       16.8657163100
  H        23.0352356800       23.2071619800       21.8290274200
  H        22.4266987100       22.3203344800       20.7734218800
  H        22.9181171300       18.4695414200       21.7035265300
  H        22.0677059100       18.2387006700       20.4386331900
  H        17.3860079900       23.0182823800       19.9096760500
  H        18.5526115200       22.6226357500       20.8621433100
  H        21.5840559200       18.4388745200       18.5635958300
  H        20.7871393100       17.2595383400       19.3366913100
  H        19.6911653300       21.7631746000       22.4965509800
  H        20.0019449900       23.3009895800       22.0630512400
  H        18.8340590300       19.7526683500       21.0600858400
  H        17.8688129100       20.2609574900       19.9624968600
  H        20.8339284400       22.5728322200       19.7671775300
  H        19.5639848800       22.4590990400       18.9338832600
  H        23.5294588800       20.7255899500       19.0386426400
  H        23.0311972700       20.0089198600       20.2402423300
  H        21.0333619400       19.5752751300       22.1732350400
  H        19.6663327000       19.6769497500       23.2485598000
  H        18.5941257600       17.7533861600       20.3308820700
  H        18.8600775500       16.2877196100       20.8358456300
  H        21.1263221100       20.7957805400       17.9025451700
  O        21.2968820900       19.8579153200       17.5443384800
  O        22.2007520500       23.0598772700       21.4433127200
  O        22.1501268800       18.8205890500       21.3844880300
  O        18.1407576200       22.4545796800       19.9211053800
  O        21.6958932300       17.6281039000       19.1848173000
  O        19.3170533500       22.6811229500       22.3641628000
  O        18.0164807200       19.4473012400       20.5277714500
  O        20.5585296200       22.4985967700       18.8363590300
  O        23.4146005400       20.8537166800       19.9682676000
  O        20.2402870200       20.0994011400       22.5619789100
  O        19.1477124100       16.9644786200       20.1860847400
      33
 i =        1, time =        0.000, E =      -189.4146296371
  H        22.2220729700       19.1452118000       17.5607204000
  H        22.7799055200       23.7197267000       20.5221920700
  H        22.3166506100       22.3408190300       20.0368485900
  H        23.0637916500       18.8944321300       22.6541914000
  H        21.9888278500       18.6658838600       21.4668893500
  H        17.4678849300       22.9477403200       19.5185963500
  H        18.7235880600       22.6596576900       20.3624283700
  H        21.7242976400       17.9833933500       19.5878295500
  H        20.5727384000       17.5701507900       20.3906000100
  H        19.5711895000       21.9125097000       22.2479066100
  H        20.3012757400       23.2487294600       21.8508638800
  H        18.5619786000       19.8443930500       21.5778489600
  H        18.1825635100       20.3074353400       20.0682280200
  H        20.7510205400       22.4522210800       18.2149524200
  H        19.5667607500       21.5052639600       17.8276070600
  H        23.4048334700       20.3331347900       19.4155089300
  H        22.7921746900       20.2786079400       20.9046277800
  H        20.8742945600       19.8156110800       22.8336743200
  H        19.6892950700       20.0728141100       23.8783839100
  H        18.4633392800       18.0370640100       20.0838310000
  H        18.5675161700       16.6111143700       19.3352699100
  H        21.1964567800       20.2060942700       18.0750822400
  O        21.5703898800       19.3217120600       18.2888023800
  O        21.9353477100       23.2176450900       20.3445564800
  O        22.4110217900       19.4390387300       22.1204739400
  O        18.2853587700       22.4030138900       19.4612462700
  O        21.5357158200       17.6187950300       20.4923080800
  O        19.3975203900       22.8464800700       21.9626251000
  O        18.2214670500       19.5222945700       20.6916717300
  O        20.5199124200       21.6680556300       17.6577496400
  O        23.2655945600       20.8717231900       20.2229363800
  O        19.9250215200       20.0887194200       22.9319670900
  O        19.0626573300       17.3490286500       19.7434066100
      33
 i =        1, time =        0.000, E =      -189.4109809739
  H        22.8200408200       20.1123037100       17.6070500000
  H        22.4889362300       23.8116373600       20.0706662200
  H        22.4290085500       22.1899519500       20.2409345500
  H        21.7940030300       17.7458397100       22.4888341100
  H        22.1613666800       18.1692429900       21.0630741200
  H        17.4365773600       22.8445345300       19.8059427000
  H        18.6711383600       22.6394509900       20.9210938000
  H        21.9317372800       18.1898839200       18.8150158700
  H        20.9184536400       17.3179931000       19.6213515900
  H        19.9864100500       22.2353847600       22.4941331400
  H        20.7593600000       23.1454291000       21.4592182500
  H        17.1837416800       19.8626338700       21.5471734700
  H        17.9538017000       20.8420205400       20.4648135200
  H        20.7777610700       22.6027642900       18.1771269400
  H        19.4404764900       21.8622098300       18.3079145500
  H        22.4483345800       20.2636308800       19.6467640700
  H        22.3178094400       20.1335995300       21.2659758000
  H        20.6089554900       19.7932069000       22.8887032900
  H        19.3267416800       20.3162261500       22.1925800100
  H        19.0044288400       17.9530091800       20.5287586400
  H        18.7476810700       16.5178094000       20.0183422600
  H        21.3042414400       20.5342398200       17.7107005300
  O        21.9403295900       19.7519602300       17.9361183900
  O        21.9355784500       23.0152441500       19.9871293600
  O        22.0217681300       18.5805992000       22.0045514700
  O        18.1585129800       22.3188657300       20.1016462000
  O        21.9420855000       17.4819140600       19.5105160700
  O        19.9068319500       23.0948876700       21.9800402900
  O        18.0101492300       19.8615988900       20.9158599000
  O        20.2629261900       21.9240338600       17.7479052200
  O        22.6643393200       20.7169604100       20.5269887200
  O        20.0354576400       20.5397214200       22.8111325000
  O        19.3951385900       17.0272660500       20.4637683900
      33
 i =        1, time =        0.000, E =      -189.4242191933
  H        22.6280278800       19.9464240000       17.1041500400
  H        21.9892877800       23.8970957200       19.9048171300
  H        22.5490603100       22.3766301300       20.3453607700
  H        23.0182918700       18.3511008300       21.9178781200
  H        21.7921803300       18.5168232700       21.0637063400
  H        17.0777824300       22.4407031800       19.9293485500
  H        18.4323459200       22.0679156900       20.7636954000
  H        21.8159090700       18.5148694500       19.0283793100
  H        20.5179505100       17.7369764300       19.4160213900
  H        20.0998630000       21.7616199700       22.3372331000
  H        20.4039249400       22.6923011000       21.1635020200
  H        18.8150248300       19.6289127500       22.1539026800
  H        17.6938766200       20.2703833900       21.3190090300
  H        20.4078701000       22.3522353600       18.5771310000
  H        19.3809783200       21.3035769900       18.4608713900
  H        23.1196146300       20.7903314100       19.3675761700
  H        23.1544248800       20.3709949100       20.8725870100
  H        21.1142758500       19.5479010000       22.9550450700
  H        20.6708871400       20.0924236700       24.3894831500
  H        18.6717279100       18.4589155500       20.1059676000
  H        18.6108895700       18.2469621500       18.5325046800
  H        21.5043655500       20.7129866000       17.8878236600
  O        22.2129236400       19.9878031200       17.9921880200
  O        21.6834913000       22.9523073300       19.9955917100
  O        22.2554175900       18.9577335900       21.8664797500
  O        17.9046094900       21.8681466500       19.9426956900
  O        21.5254688100       17.8065469800       19.6442242200
  O        19.6854949400       22.5527348900       21.8691275400
  O        17.9230116500       19.4277891800       21.7744595400
  O        20.1325519100       21.6677676700       17.9093088300
  O        23.5161123700       21.0276664300       20.2168679700
  O        20.4044908500       20.1673826300       23.3848903800
  O        18.8432074600       17.8344791500       19.3734527800
      33
 i =        1, time =        0.000, E =      -189.4221630183
  H        22.4399604400       19.8043058100       17.2360133200
  H        22.3079885000       23.8965202900       20.7560675000
  H        22.4213612900       22.2924300800       20.8066367800
  H        22.7607430200       17.9811616500       22.5131937900
  H        21.7998431300       17.9091774100       21.1284605000
  H        17.2339454100       23.1092120500       19.8298971400
  H        18.3154776400       22.8505857500       20.9723802500
  H        21.6163120600       18.1187207200       18.9729218000
  H        20.4131646200       17.1792634300       19.4030656900
  H        19.6972996300       21.9806743400       22.4940112500
  H        20.1728199600       23.1521651300       21.8936535900
  H        19.2290248900       19.8036429700       21.3370389900
  H        18.3597826200       20.7297919800       20.3676248900
  H        20.8997935300       22.4152594500       19.0818140300
  H        19.4994398500       22.0131144200       18.7099320400
  H        23.1635764300       20.5590676000       19.3548487500
  H        23.2012323600       20.0010269000       20.8430045000
  H        20.7866080500       19.4417776800       22.7402643100
  H        19.4792725100       19.7352601400       23.4766297200
  H        18.9392313300       18.5200550900       19.5330843000
  H        18.1251101400       17.2335278400       19.2264623700
  H        21.3770037200       20.5976645400       18.1236387800
  O        22.0368852300       19.8310649300       18.0977329800
  O        21.7845909200       23.0243205300       20.6335791300
  O        22.1136936300       18.5266734700       21.9525445100
  O        17.9694222400       22.5271098200       20.0726679800
  O        21.4713998500       17.4063743900       19.6551725400
  O        19.3661674100       22.8398794300       22.2943871700
  O        18.6468057700       19.7967092200       20.5317764200
  O        20.4411783600       21.7376923400       18.5482769600
  O        23.3498227700       20.8362497700       20.3315944700
  O        20.0119329300       20.1333655600       22.7773190400
  O        18.9723485800       17.6384028700       18.9983375000
      33
 i =        1, time =        0.000, E =      -189.4146313024
  H        22.9161103600       19.4324766200       17.8714797700
  H        22.0127999600       23.6368924500       21.2470664800
  H        22.5513963600       22.3152282800       20.8601376900
  H        21.5876117400       18.3165172200       23.2328712000
  H        21.6265801900       18.7759140800       21.6606872000
  H        17.6415950200       22.9341864400       18.7090272200
  H        18.3555905300       22.2918381700       20.0638797700
  H        21.8439720600       18.8006824800       19.6788214300
  H        20.8742956000       17.5382651000       20.0734682600
  H        19.2007508900       21.4778715700       22.0489911300
  H        20.0122801800       22.5431303600       21.3526700300
  H        18.1004806800       19.4366900000       20.6759405500
  H        18.0014466100       20.3053700500       19.3267584800
  H        21.1920037000       22.3501319700       19.1670262600
  H        19.9698821500       21.8112722900       18.2466212900
  H        23.8037100300       20.8640436600       20.1307938500
  H        23.7008553100       20.5463251500       21.6250040700
  H        20.0315903700       19.3955272600       22.7089346000
  H        18.6300344100       19.9707511100       23.4034654500
  H        18.4530243900       17.9105961700       19.3133516500
  H        19.0912104400       16.7749075400       18.4479407200
  H        22.0204166100       20.7236238300       18.3129119700
  O        22.8562481500       20.0709656300       18.6389242200
  O        21.9119597300       23.0055101200       20.5582246500
  O        21.5535707400       19.0664648300       22.6221807400
  O        18.2949925400       22.2548817800       19.0144620500
  O        21.6766243500       18.0507958800       20.3338565000
  O        19.1333857000       22.4347538500       21.7407139400
  O        17.6849739000       19.4960600700       19.7740213300
  O        20.9379468000       21.8112733000       18.3644914600
  O        23.8667225000       21.2637042700       21.0052568900
  O        19.0975958500       19.7773237700       22.5262657200
  O        19.1893751300       17.1399597400       19.3554898400
      33
 i =        1, time =        0.000, E =      -189.4098417897
  H        22.4119931900       20.0331974100       17.0852708300
  H        22.9587009700       23.6682825700       21.1834360700
  H        22.8300768000       22.4185643000       20.4057343500
  H        23.5332616100       17.7465760200       22.4122622100
  H        22.5133506500       18.4456743300       21.5946683600
  H        17.2160280700       22.4454189100       19.7410430700
  H        18.6418296300       22.1475048200       20.3200067200
  H        21.6734982100       18.3773925000       19.2017650400
  H        20.6995255800       17.7685348100       20.2209043000
  H        20.0347738200       21.6960673600       21.9901592900
  H        20.6250111600       23.0706851600       21.4209689900
  H        16.9182749100       19.7006343800       21.4304889800
  H        17.1942205000       20.3018227400       19.9539764600
  H        20.6316459900       22.7691508900       18.7810373100
  H        19.3360779700       22.1182943400       18.1892785700
  H        22.9551104900       20.6124494400       19.5280863000
  H        23.6845322200       20.1252862300       20.7760382600
  H        20.6881317700       19.6601335900       22.7699950400
  H        19.3766595900       19.2194397300       21.9130406700
  H        18.0090690200       18.3065439600       20.3525606500
  H        18.4020634200       16.7462229100       20.4318486200
  H        21.2470377300       20.8196935200       17.9896976400
  O        22.0681651800       20.0935976400       18.0032704900
  O        22.2600027900       23.2720931100       20.6118583500
  O        23.0275997900       18.5480343900       22.4293994400
  O        18.0401764100       21.8884735900       19.5705705400
  O        21.6527502100       17.8314996500       19.9875784800
  O        19.7696527300       22.5773757200       21.5907652100
  O        16.9854184900       19.4486409700       20.4936626700
  O        20.3232136400       22.2889027000       17.9682036600
  O        23.5206363200       20.9488524500       20.2414368400
  O        19.7331125700       19.8192037000       22.5953800800
  O        18.8249835600       17.6521634300       20.4710950400
      33
 i =        1, time =        0.000, E =      -189.4313057677
  H        22.6525376600       19.1077062800       17.4209383300
  H        22.8212442800       23.6723180400       20.1352147900
  H        22.6828685300       22.0938305200       20.1952221000
  H        22.3951917400       18.3631375400       22.8492025500
  H        21.7988704500       18.5902648900       21.4013954300
  H        18.0233638700       22.9890296200       19.3389743800
  H        18.8441256700       22.4002275900       20.4461251800
  H        21.6094084600       18.2205119900       19.3921068200
  H        20.4973187800       17.5422891700       20.2709587800
  H        19.8704246100       22.3812663100       22.1208706000
  H        20.6888521800       23.2611885700       21.0998947100
  H        17.8963643200       19.9180653500       21.7813288500
  H        17.8086821700       20.3022371400       20.3073045500
  H        21.1431051800       22.2871242500       18.3032496800
  H        19.7406451700       21.5814412800       18.3774186900
  H        22.7707075100       20.1177393700       19.5593829100
  H        23.1485833800       20.2837712300       21.0157034400
  H        20.6437732400       20.2363866700       22.6064604600
  H        19.8289305600       20.8814056200       23.7345753900
  H        18.2901539500       18.1376292300       20.2754634000
  H        18.2751347000       16.6304807800       20.7885373700
  H        21.4026652000       20.1811321800       17.9352223900
  O        22.0274725400       19.3286670700       18.1802499800
  O        22.1777276700       22.9408775800       20.0993226200
  O        22.1194712300       19.1670896600       22.3100901200
  O        18.4220801400       22.1204428400       19.5988816800
  O        21.4558115000       17.8491362700       20.2607811200
  O        19.7947095600       23.2035135500       21.5667516400
  O        17.5584240900       19.5543282100       20.9164924300
  O        20.6206646900       21.4550980000       17.9747419700
  O        23.4180309300       20.6373875600       20.1462644100
  O        19.8400031200       20.8259699500       22.7440262400
  O        18.6924303600       17.2244811400       20.0608251900
      33
 i =        1, time =        0.000, E =      -189.4222708135
  H        21.2976291900       19.2320842000       17.1877858600
  H        23.1026649200       23.0932137400       21.2373645100
  H        22.4973075200       21.7239221600       20.9814460300
  H        22.4370580500       18.1844611000       22.6587459900
  H        21.6465831400       17.9031308300       21.2196450000
  H        17.6741640900       22.9711470100       19.1764304300
  H        18.7970466500       23.1340106300       20.2989739900
  H        20.9943167900       18.0783986100       19.3148936900
  H        20.0148575900       17.3479148300       20.4082248600
  H        19.6464974400       22.2737106200       21.9718783100
  H        20.3477527300       23.5136745000       21.3704797700
  H        19.3770407200       19.6629388100       19.0795068200
  H        18.5506914700       20.9174494500       19.3744250100
  H        21.6795966600       22.5557047900       19.0712155200
  H        20.2666374200       22.3363973600       18.5548770700
  H        23.1941535600       20.1921377600       19.8392090200
  H        23.1786124500       19.5640033800       21.1529147600
  H        20.6433322400       19.7607591500       22.2699188000
  H        19.1810429300       20.1250028000       21.6878807200
  H        18.3432369100       18.3941733800       20.2511137900
  H        17.5507742300       17.1869292400       21.0665789700
  H        21.3768254400       20.3655353800       18.2476706000
  O        21.5099086700       19.3746311800       18.1690982800
  O        22.2107131500       22.6910937900       21.1422776300
  O        21.9583333600       18.6319352200       21.9381305500
  O        18.5832577500       22.6577730600       19.4509973300
  O        20.9478843600       17.3652294200       20.0039488100
  O        19.4749363700       23.2124440100       21.6839683800
  O        18.4908417100       19.9033468200       19.4416117800
  O        21.1972203800       22.0987451400       18.3582426100
  O        23.5012347100       20.3926146800       20.7670104500
  O        19.8850659300       20.4723736800       22.2812201700
  O        18.4326466900       17.5485439500       20.8067983400
      33
 i =        1, time =        0.000, E =      -189.4226772052
  H        23.0128784100       18.9298881000       17.4033594800
  H        22.5521730900       23.8015103900       19.3443579100
  H        22.8265757100       22.3668474500       20.0988347300
  H        22.4609035600       18.7966605700       22.9652021100
  H        21.6744984900       18.8955696800       21.6053940100
  H        17.4118777600       22.4568336000       18.9261884100
  H        18.6332652600       22.2666219400       19.9509039200
  H        21.5283013000       18.2989474800       19.3954282100
  H        20.2080139100       17.8328065100       20.2795106400
  H        19.8257306600       22.1416221100       22.0584046200
  H        20.4066273800       22.9436064800       20.8853347900
  H        18.4495982500       19.9618311600       22.0238488200
  H        17.5662288100       20.3837443100       20.7695952800
  H        21.0755848100       21.8026062000       18.5641069300
  H        19.8891506300       20.8124690100       18.5561301800
  H        23.3856989300       20.2963307500       19.4212393600
  H        23.2454944000       20.2559474600       20.8389055900
  H        20.9210024600       20.1104750800       22.7180020600
  H        20.1863473200       21.1730341000       23.7762291600
  H        18.0261944800       18.4238920500       20.5547775100
  H        18.0935796600       17.2501443200       19.4339505700
  H        21.9149919400       20.0137546500       17.9335878900
  O        22.7017607800       19.3725106400       18.1914529000
  O        22.1261699600       23.0939766200       19.8576748200
  O        22.1368607300       19.4525768100       22.3259151200
  O        18.0792804800       21.7862414400       19.2720596200
  O        21.2197645700       17.9552152800       20.2862803300
  O        19.5329535200       22.7601891800       21.3348228300
  O        17.7394457400       19.6424435400       21.3873507600
  O        20.6213068000       21.1470528700       17.9450599400
  O        23.4060686200       20.9294066400       20.1613910400
  O        20.0514737800       20.6555285800       22.9380025400
  O        18.4826477700       17.5095846200       20.2751171000
      33
 i =        1, time =        0.000, E =      -189.4054648069
  H        22.6212346000       19.1523778200       17.2354611600
  H        22.1315469300       23.8762674800       19.9045585300
  H        22.7787524100       22.5535329700       20.5430537100
  H        23.0373056300       19.5808254200       21.7073661200
  H        21.8956480300       18.6310161900       21.3669625400
  H        17.6008076100       22.3772801600       19.0734970800
  H        18.6406146100       22.3158612300       20.3560969000
  H        21.5243440500       18.2406951800       19.3119550700
  H        20.2909111000       17.8119225400       20.1384679500
  H        19.5787396800       21.9691974800       22.3816144000
  H        20.4420233300       22.7152328100       21.2196809900
  H        17.8129270200       19.4570059300       21.6973820200
  H        17.4004767500       20.4778468000       20.5150812200
  H        21.3741337600       22.3703316600       19.2384230400
  H        19.9917763100       21.7125477400       18.6504466800
  H        24.8031897800       21.0428339100       19.6019217600
  H        23.4036588000       20.4162950700       19.4628212700
  H        20.4151012500       19.5399678300       22.6207972300
  H        19.2033053800       19.3583133000       23.6734052200
  H        17.9070636900       18.4934961100       20.1017389700
  H        18.3625374200       17.9347255500       18.7945843600
  H        21.9430068100       20.3904524800       18.0649822500
  O        22.5855813300       19.6190249400       18.1681233800
  O        22.0182676900       23.2144747900       20.6322750800
  O        22.2141356500       19.2418573300       22.1144498900
  O        18.2299245100       21.8083663800       19.5183202600
  O        21.3358884600       17.7090917500       20.1109265000
  O        19.5445750300       22.5662278800       21.5869220600
  O        17.2158166500       19.5603723700       20.9285555700
  O        20.9597587900       21.8412385100       18.3953397600
  O        23.9595126200       20.9519314000       20.0719349000
  O        19.4828395600       19.8465653600       22.8278834900
  O        18.5599766000       17.8697892200       19.7365119700
      33
 i =        1, time =        0.000, E =      -189.3889909279
  H        21.1406170100       19.1505204000       16.8958316800
  H        21.1562365200       21.6159928500       21.4780115000
  H        22.3737142900       21.8372678200       20.6472833400
  H        22.9641027300       17.5910381900       21.9464864500
  H        21.9776382000       18.1161659500       21.0317031200
  H        18.5039232800       22.0948747900       19.0796153500
  H        17.9898873900       22.8159015100       20.2797433100
  H        21.6531279200       17.8126516700       18.9440028700
  H        20.4954431600       17.2035337700       19.8846056300
  H        19.4199836800       25.0253862400       19.7698158000
  H        20.0478157500       24.0817555100       20.8709490900
  H        19.1142309900       20.3689764100       21.8048633100
  H        18.1633717600       20.8632753800       20.5571224400
  H        20.5489857300       22.4499534200       19.1830936900
  H        20.1956052800       23.0728213200       17.7602181300
  H        25.1153810700       20.2996095300       21.4314516800
  H        23.7498287900       19.6667980100       21.3670233900
  H        21.1826924900       19.4559430000       22.5785438400
  H        20.4947426300       20.4826023700       23.6399425800
  H        18.7778516000       18.3980133500       20.8198606000
  H        18.6147164100       17.7949872600       19.3940567300
  H        21.1465415700       20.2178689200       17.9977338100
  O        21.0360961300       19.2696433000       17.8098010400
  O        21.4637542100       22.2095213200       20.7186131500
  O        22.4008198200       18.3714138700       21.9564142400
  O        17.7348386700       22.0207121300       19.6941410000
  O        21.5369715000       17.1508799600       19.7221478700
  O        19.3443211600       24.7028398000       20.7146423600
  O        18.3691971500       20.0540950300       21.1819154300
  O        20.2086722500       22.1843309300       18.2453209900
  O        24.2385502500       20.3695637700       20.8959737000
  O        20.7886061400       20.3556737400       22.7124180300
  O        18.8794010400       17.5403976200       20.3326437600
      33
 i =        1, time =        0.000, E =      -189.4123923285
  H        22.5119922800       19.7370103100       17.2523806000
  H        22.7395628000       23.6887294200       20.9198877900
  H        22.5685090600       22.1757358900       20.7590131800
  H        22.2396173000       18.3584742600       22.6545156900
  H        21.4115739400       18.4558080700       21.1778835600
  H        18.1276466900       22.5134305200       19.6644570700
  H        19.1259068300       22.2099614000       20.8847616400
  H        21.8189185400       18.1077632800       19.1307242200
  H        20.6411143900       17.2048166200       19.6193969200
  H        19.7542079100       22.1153670800       22.9574263300
  H        20.5894508800       23.0609152100       22.1840725200
  H        18.1244879100       20.0507770800       18.1624757900
  H        17.9814735900       20.1792037000       19.5474018600
  H        21.2477534000       22.8004120600       18.8327717600
  H        20.0789736000       21.9391182200       18.4786779800
  H        22.8625356100       20.1684364900       19.5490248000
  H        22.7862137800       20.1620894100       21.1408032900