      12
 i =        1, time =        0.000, E =       -68.8403917029
  H        19.4167780200       23.9850477400       19.5199093000
  H        17.8735113300       18.7744698200       20.5922914600
  H        17.3614286900       19.2470340900       19.1723640400
  H        19.6671395100       16.9919347200       19.6767699400
  H        18.9224235800       16.4138402400       20.9227754800
  H        18.5898827900       22.3016338000       21.1474425400
  H        18.1472390400       21.1465905600       20.2234059400
  H        20.4395467600       23.4655898700       18.6970278200
  O        20.1695101800       24.3157158100       19.0093053200
  O        17.5422432900       19.5720030800       20.1399990400
  O        18.7547713800       16.9106037800       20.1090856300
  O        18.4262241300       22.1163648200       20.1795026500
      12
 i =        1, time =        0.000, E =       -68.8386464148
  H        18.7567974700       21.9877349400       19.7234966200
  H        19.8974124500       20.0038278700       20.7513958800
  H        18.2715499700       19.9291424700       20.9857393000
  H        20.4898870900       19.5261816800       18.7316715200
  H        21.1389515400       18.6999568200       19.9775313500
  H        15.9830285000       19.6233007200       19.2976909900
  H        16.6631093100       20.8938298600       19.0040098000
  H        18.0033031800       23.3809541300       19.5613944300
  O        18.1692193300       22.4891859200       19.1631664800
  O        19.0905375100       20.5329159700       21.1387343000
  O        21.0619327600       19.5811661000       19.5268842100
  O        16.6475405200       20.2031291300       19.7300157800
      12
 i =        1, time =        0.000, E =       -68.8532780769
  H        18.5529795300       23.5601751700       21.2752346400
  H        19.6400839300       20.0481336100       18.8398420300
  H        18.9324773600       20.4958147000       20.0618016000
  H        21.0373665300       18.0904119300       18.0548227100
  H        19.8131344100       17.6690474500       18.9078264800
  H        17.4534822300       21.4608299500       21.0716575900
  H        16.4087163600       20.4103162300       20.7236458800
  H        18.8189254600       22.5970683300       20.0631855100
  O        18.0896797400       22.9839299800       20.6627487500
  O        19.4370831200       20.8888501700       19.3258134200
  O        20.1096795500       18.4000521900       18.3257452500
  O        17.2412350300       20.5154908800       21.1836891100
      12
 i =        1, time =        0.000, E =       -68.8599625016
  H        19.5963335600       22.5724797900       20.9784334000
  H        20.2677221200       19.7461572700       21.7888491200
  H        19.1696602900       19.2244416700       20.9168466800
  H        18.4489687700       19.8243232600       18.5711605400
  H        18.2580294600       18.2962885500       18.8029816600
  H        18.2892312000       21.8791153900       18.8907654000
  H        17.3643981800       21.8652917600       17.6918844200
  H        18.3575629300       21.8163621000       21.0909150600
  O        18.7221650100       22.5756903100       20.5786521400
  O        19.2710540200       19.7566048700       21.7956079900
  O        18.8725556100       19.0202509500       19.0517803000
  O        18.0689377000       21.3795358500       18.0887264800
      12
 i =        1, time =        0.000, E =       -68.8609924434
  H        19.0681705700       22.1731928500       20.1238970000
  H        19.8947411300       20.4331486200       21.0973206700
  H        20.9444288500       21.4104418500       21.7158754900
  H        18.4420541900       18.5946719300       20.9827322200
  H        18.5171058200       19.2616983000       19.6157870800
  H        16.4574671300       20.0544425000       18.7724219400
  H        17.8556735300       20.8730772400       18.4366445100
  H        18.7388609900       22.9238663900       18.8803133200
  O        18.2499473700       22.3320056100       19.4894038300
  O        20.2049153700       21.3820916700       21.1174766900
  O        19.0994417300       19.0572737000       20.4546172300
  O        17.3699117000       19.9292039900       18.3969968000
      12
 i =        1, time =        0.000, E =       -68.8449489016
  H        18.9972077700       21.8310581200       19.6068390100
  H        17.9899946500       19.6811912800       21.1656105600
  H        18.0582707800       18.9730290300       22.5593380400
  H        18.0109893600       18.7598601200       16.5897829500
  H        18.3669833000       20.0682457600       17.4034152100
  H        19.1489618900       21.3775210700       21.9825938200
  H        20.3401101400       22.1650979200       21.1967276000
  H        18.6703294600       22.7395549100       18.3302321600
  O        18.9753321300       21.7890674000       18.5931271300
  O        18.5984552300       19.5566892600       21.9748208100
  O        18.0094498900       19.1600736900       17.4717166600
  O        19.3621264900       22.2028709700       21.4686316000
      12
 i =        1, time =        0.000, E =       -68.8452738001
  H        17.3417391000       22.6916226700       19.0443802300
  H        19.5966277200       19.2305932800       20.5080101200
  H        19.8569445700       20.4933423200       19.6584133800
  H        21.3789448400       18.6454004400       19.8736333600
  H        21.3912134800       17.7944381400       21.2149933000
  H        17.5774590800       21.0305223800       20.2788193700
  H        16.9832303200       21.9808539700       21.2786074200
  H        17.3068435300       23.5974348500       17.7128160600
  O        17.8649537300       23.2365038900       18.4151196300
  O        19.2341074100       20.1042600400       20.3030686100
  O        20.9595095100       17.8270832300       20.3187691500
  O        16.7702260200       21.5491297300       20.4250224900
      12
 i =        1, time =        0.000, E =       -68.8394883714
  H        18.9273406300       21.3679325900       21.2659054500
  H        21.2725753300       21.0273440400       20.7380779900
  H        20.9145393300       19.9540749400       19.7184646400
  H        19.2620147400       19.6393019000       17.9976254100
  H        20.4871036800       19.0306407200       17.1674904300
  H        15.5934423800       21.9992030600       20.0293325100
  H        16.9209749800       21.5129978300       19.6638278900
  H        17.7794515700       20.7864152800       22.0812225500
  O        18.0459027100       21.6361439200       21.6496211300
  O        20.6140151100       20.2851234100       20.5652527300
  O        20.0860862700       19.0030342100       18.0992636600
  O        16.1001539300       21.8018926700       19.2050327000
      12
 i =        1, time =        0.000, E =       -68.8518978676
  H        19.0188085700       21.1753921300       18.4652686900
  H        19.7183099500       20.0155493800       20.6357090600
  H        18.3155266500       19.9189985700       21.2832113200
  H        19.9400710300       18.7249718000       17.8574210600
  H        18.9677322400       19.0414178500       18.9680601100
  H        17.8713131700       22.1452917900       20.6311629900
  H        17.6530749400       22.2934819500       22.2855180400
  H        19.2169999100       22.8077460200       18.4275980000
  O        19.1011345200       21.9980110000       18.9455863800
  O        19.1214315200       19.3495655100       21.0510896000
  O        19.3427117900       19.4361675900       18.1139798500
  O        17.3095852000       21.8917357900       21.4153186600
      12
 i =        1, time =        0.000, E =       -68.8321772961
  H        20.0025745500       22.7750826600       22.1163762800
  H        19.5955833500       21.3110951700       18.1596955800
  H        19.7396155500       21.1095806200       19.7121712700
  H        19.7870048500       17.6613749300       19.4435613200
  H        19.4743141500       18.7010747100       18.3284845300
  H        15.6965126900       21.3883018500       21.3053740700
  H        15.2306062600       21.2955046600       19.8412487500
  H        21.2391704600       22.1480823000       21.3598198700
  O        20.2680951000       22.0215138300       21.5217069000
  O        19.1991674900       20.8709463800       18.8928209800
  O        19.8764637700       17.8183937600       18.4924902000
  O        15.5271330300       21.9477882800       20.5110443700
      12
 i =        1, time =        0.000, E =       -68.8391743978
  H        18.2451103700       22.1945524000       18.7376122900
  H        21.6567947600       20.0061522100       19.9280000300
  H        20.2352064500       19.4371122100       20.1249784600
  H        18.4452216200       17.6942095100       19.4369269700
  H        19.0279612800       18.3705014300       18.1662613800
  H        16.2104375600       21.9746160700       21.8163895200
  H        16.9449284700       22.4598074800       20.6693110900
  H        19.5051316300       21.5643498600       19.5930525100
  O        18.8893221200       22.3209355700       19.4658127900
  O        20.7656851200       20.2887398900       20.2319609200
  O        19.2427829700       17.8631401400       18.9266297700
  O        16.0042303000       22.3552313700       20.9067006100
      12
 i =        1, time =        0.000, E =       -68.8614213332
  H        20.6055107900       21.2272198600       18.3051876100
  H        19.6174009800       20.6494135700       22.1687707400
  H        19.0113552000       21.7573990000       21.2920910900
  H        18.6471665000       19.6245243900       18.6090610300
  H        17.3939087000       18.9480961100       17.8283354700
  H        16.2687003000       21.5845203000       20.7045334400
  H        17.4136727700       20.7239388600       20.2040187000
  H        20.1698308500       20.8792196100       19.7781528600
  O        20.2400709500       20.4810814100       18.8523180700
  O        19.8372696200       21.2543218400       21.4049674800
  O        17.6735354100       19.3748816400       18.6970956600
  O        17.2231735400       21.6110944700       20.5504112500
      12
 i =        1, time =        0.000, E =       -68.8561826587
  H        18.9139317400       21.8811191700       20.6540869000
  H        18.0649284100       20.3936682100       21.1782477100
  H        17.1972786400       21.0160037200       22.4386871200
  H        20.2442354900       19.6060120700       17.6159967100
  H        19.9165044000       20.7687898100       18.6076169700
  H        17.0420874900       20.0704658900       19.1168253900
  H        18.4020947100       19.3587532500       19.0516803500
  H        19.8873620300       23.0080283200       20.2000857800
  O        19.6822096400       22.0724635900       19.9898590100
  O        18.0626086100       20.8913432400       22.0383370400
  O        19.5738229400       20.2746414700       17.8241949600
  O        17.6213309500       19.4382922300       19.6540977800
      12
 i =        1, time =        0.000, E =       -68.8364467630
  H        21.3304065800       21.2840418800       21.2252818500
  H        17.7051082200       19.6724250600       19.8193547500
  H        17.0466790600       20.8278900800       20.5816811300
  H        19.0876431400       20.1646338900       18.3354920100
  H        18.0673255700       19.0963293600       17.8214132500
  H        19.2205733600       22.2964426300       20.7626907200
  H        18.1738650900       23.5065069600       20.3683847600
  H        21.0805007700       20.1089176400       20.2001973600
  O        20.7231364000       20.9483412100       20.5015719400
  O        16.8877165600       19.8890873100       20.2954605000
  O        18.9377563200       19.2144280800       18.2646780500
  O        18.2626030400       22.5710567200       20.4289473500
      12
 i =        1, time =        0.000, E =       -68.8633247380
  H        19.8608169500       21.0533260200       17.3384907100
  H        18.4798100900       21.1922898700       21.4309560400
  H        18.5581264700       20.1459801500       22.6749413000
  H        18.8206823500       19.4604154900       20.4245067300
  H        19.0379652800       18.0132174300       19.7017299400
  H        18.6207531900       22.0655025600       19.3397975700
  H        17.5471378400       22.9267285000       20.2800508700
  H        19.1399652600       20.2242986900       18.4506106500
  O        19.1559245500       21.1616495800       17.9673876900
  O        18.4347253700       20.2061314900       21.7205598000
  O        18.9341407200       18.9471117300       19.5136347300
  O        18.3901793700       22.4261799000       20.2558985000
      12
 i =        1, time =        0.000, E =       -68.8616469645
  H        18.4548849100       23.1497755800       19.4580473500
  H        19.9063458200       19.6627692900       19.3962389800
  H        19.2665403900       18.2942506100       19.7601510100
  H        19.5639482800       21.2343838200       17.3220883200
  H        18.5521552100       21.3877297300       18.5103803200
  H        18.7015762100       20.0516503200       21.3594281200
  H        17.1504429600       20.0652132000       21.6280324200
  H        17.9616113000       22.0237336900       20.4501573500
  O        17.8795622300       22.3490455300       19.5340503000
  O        19.9114101900       19.0039983400       20.1764287500
  O        19.1998600900       20.7251878400       18.1052335400
  O        17.9561278900       20.6132097900       21.7524383500
      12
 i =        1, time =        0.000, E =       -68.8394879758
  H        16.8834479300       23.6630202100       17.8164408700
  H        20.3411669900       18.1028920600       22.6374341700
  H        18.9770133500       18.5674903500       23.1189890000
  H        20.4660742600       20.5994053400       20.1500625100
  H        19.5228190200       19.6310009200       20.8987874000
  H        18.7674057900       20.4279037000       18.7149239800
  H        18.2706689500       19.8474024900       17.4672618000
  H        17.3863569200       22.4783477600       18.4955470300
  O        17.3213479200       23.4526456100       18.6141293300
  O        19.7965951600       18.8859558900       22.8105437300
  O        19.7997368200       19.8976316000       20.0051234700
  O        17.9626571000       20.6159972000       18.0492086900
      12
 i =        1, time =        0.000, E =       -68.8393794530
  H        19.3178981700       24.4284968800       19.4235660400
  H        18.9747589700       20.3366225100       18.3839642700
  H        19.4865136600       21.1778482300       19.5729088100
  H        18.7646186600       16.5710688900       20.8525794500
  H        19.8725356700       17.6071095700       21.2081626400
  H        17.1803901500       20.1686607500       21.1411764600
  H        18.2479410700       19.1600952000       21.0067045800
  H        18.7416728500       23.1327392900       18.6192736400
  O        18.5250932300       24.0255625800       18.9521977000
  O        19.2106601800       21.2675533600       18.6041852100
  O        19.0185585300       17.5096284000       20.7220309400
  O        18.1278284900       20.0957826100       21.1433277500
      12
 i =        1, time =        0.000, E =       -68.8628526713
  H        19.9210142600       20.7943353200       21.0819975200
  H        20.3391246600       18.5276126500       20.3462121400
  H        19.3148638700       19.2001169400       19.3307328400
  H        17.1423688700       19.4682958300       17.7650259200
  H        17.5543306900       20.6490024800       18.7480401300
  H        18.2576171500       21.9599277300       20.3522900200
  H        16.7608105500       22.4013440800       20.0083083600
  H        20.0748580800       22.1633048300       21.9291391200
  O        19.4880013100       21.6045844200       21.4264918000
  O        20.0777611800       19.3730391900       19.9971528800
  O        17.8406938800       19.6623174500       18.4187827900
  O        17.5526333600       22.0959539000       19.6200518600
      12
 i =        1, time =        0.000, E =       -68.8372927891
  H        17.6779259900       23.8191792700       17.9048647300
  H        18.3378629100       18.8473098900       21.1052631700
  H        16.8479166200       19.0304018900       21.0542286300
  H        19.8911527100       18.1592569500       18.7160729100
  H        20.4364125600       17.7879668800       20.1347716100
  H        18.3024550300       21.0846871900       21.0766298500
  H        19.3756723000       22.0093270200       21.5698170600
  H        18.9822756700       23.2306216600       18.3332429300
  O        18.5585149400       23.6022904300       17.5447063100
  O        17.6031744600       19.2952378200       21.5951889400
  O        19.7353384600       18.2402721900       19.6436847000
  O        19.0313987500       21.6733961500       20.6579099500
      12
 i =        1, time =        0.000, E =       -68.8440508478
  H        19.1359857900       23.2417639400       20.4411194700
  H        20.8559026600       20.9290992700       18.4933089900
  H        19.7787507300       19.7547598400       18.6479949000
  H        19.9272567700       17.3501249300       17.6519091300
  H        18.3184917300       17.6974720700       17.8101924800
  H        16.3989830200       21.9036832000       22.5860787300
  H        17.4012938000       22.1357464900       21.5148868100
  H        19.4501826900       21.7665710400       20.0856620300
  O        19.1988933200       22.3629329100       20.8319924500
  O        19.9641772300       20.7289734600       18.8947916600
  O        19.2305588200       17.6603938100       18.2694004500
  O        16.4456357400       22.0078336100       21.6131313100
      12
 i =        1, time =        0.000, E =       -68.8561510159
  H        17.6576261700       20.9756922100       20.3868144100
  H        19.7462797100       21.3428212400       21.0542749800
  H        21.0137384300       21.6569779900       20.1417355000
  H        19.7953331100       19.9520142600       19.8256019600
  H        20.1175369800       19.0732797300       18.6665440200
  H        17.7495843900       20.2651998000       18.3430757500
  H        16.3388431000       19.9031613100       18.7095477800
  H        17.4089704100       22.3418488200       21.0547394900
  O        18.0843314500       21.6001040500       21.0972857900
  O        20.5913967300       21.0166870900       20.6791401700
  O        19.3317414800       19.3583016500       19.1422077600
  O        16.9224540100       20.7389363300       18.6307539900
      12
 i =        1, time =        0.000, E =       -68.8587298213
  H        21.2822792300       21.1495451600       20.2927797300
  H        17.9877576800       23.0397793900       20.1525845200
  H        19.0393308300       22.1141235300       20.5768604100
  H        19.3483585000       17.9724421800       19.5654474300
  H        18.4739750400       19.3478096200       19.5254055600
  H        16.9920922800       21.0241560400       18.4518603100
  H        17.5377753000       20.9282006300       19.8718791300
  H        20.2010515000       20.1531374400       19.7903024400
  O        20.4251092200       21.1885105800       19.8186724300
  O        18.0493260700       22.2717524700       20.7047533900
  O        19.3338060400       18.9057391500       19.8268036600
  O        17.0564916800       20.3342795300       19.1963365600
      12
 i =        1, time =        0.000, E =       -68.8421949580
  H        19.8166404200       22.4933707200       18.5646554900
  H        19.8257695300       19.7733137900       21.4041065500
  H        20.0895275700       20.6777822600       22.7404056200
  H        19.0652113800       19.0103131100       17.6523285500
  H        17.8976522800       19.4533430900       18.6696577600
  H        16.3521172900       21.3383816900       20.8349334500
  H        17.7133136900       21.5400655400       20.3305865100
  H        18.8512811000       21.3347532000       18.2774024900
  O        18.9265225100       22.2426587200       18.7117227000
  O        20.3670820100       19.9208294100       22.2035897200
  O        18.4510630800       19.7192623500       17.8704898600
  O        17.1988900700       20.8243275300       20.7452045200
      12
 i =        1, time =        0.000, E =       -68.8459986493
  H        20.3428677400       22.3262396500       21.8991017800
  H        17.9281967800       18.8353844900       19.6768622900
  H        16.8210761200       19.1126421400       20.6532859000
  H        18.9946196400       17.7680802500       17.5271585200
  H        18.9439130100       19.3344608900       17.4757866600
  H        17.4000243900       22.5060360200       20.5330695300
  H        17.9844066600       21.1398487400       20.0002376800
  H        19.8409671200       22.6373976500       20.4099336900
  O        20.6002969800       22.8520308500       21.0886861000
  O        17.7693501900       19.3309052500       20.5774684100
  O        18.5646345900       18.5281547300       17.9471629300
  O        18.0946740700       22.1195526100       19.9365048700
      12
 i =        1, time =        0.000, E =       -68.8381078182
  H        20.2301740800       23.2444368400       21.2687353800
  H        20.8770368200       20.0239328700       20.3794374300
  H        19.7703163800       21.0596957800       20.5087450100
  H        17.6007027000       19.5886403600       17.9164057500
  H        19.0107569700       19.5435495600       18.3941485300
  H        16.1527336000       20.1412639600       20.3786353300
  H        17.3608875600       20.9774789700       20.5554824500
  H        20.3867920400       22.2848902700       22.4412147800
  O        19.7589484500       22.4929634700       21.6968950700
  O        20.0422927900       20.2759550200       19.9722976500
  O        18.3609793400       19.0815872400       17.7930989800
  O        16.6693232100       20.7782857800       19.8564719400
      12
 i =        1, time =        0.000, E =       -68.8532854041
  H        21.3093394100       21.4468450800       21.3654746900
  H        19.8588324100       21.4781873500       17.4962117500
  H        18.7909790800       20.6087524600       18.2607608200
  H        17.1223849400       20.5177512900       19.7681868600
  H        16.2549349500       21.1614979600       18.7674336000
  H        18.5881208000       19.4512119800       21.4681915000
  H        18.0256886400       20.8922755800       21.9507689800
  H        20.6472676600       21.3862857700       19.9088495400
  O        20.4751363200       21.3467755900       20.8905537500
  O        19.7469941200       20.7889320000       18.2139923000
  O        16.9020805700       20.4577700000       18.8118948900
  O        17.7572225900       20.0303417200       21.5823203600
      12
 i =        1, time =        0.000, E =       -68.8301588946
  H        21.1260633200       21.4021928700       19.5597285300
  H        18.6828402300       20.2648444700       20.5772608900
  H        17.7489192100       20.2333097700       21.9212628600
  H        19.5584957500       18.0613786700       17.8753229900
  H        20.2697298800       19.3365596000       18.3867526800
  H        15.9326996400       22.2004514500       21.1534028800
  H        15.4726157000       22.8707917500       19.8650384500
  H        20.9325715500       20.4850948000       20.7937710700
  O        20.6777919900       20.5876706400       19.8431702700
  O        17.8393799900       20.5544172400       20.9971895500
  O        20.4691046700       18.5168250600       17.8764580900
  O        15.9501979800       23.0964701900       20.7096991200
      12
 i =        1, time =        0.000, E =       -68.8403545457
  H        18.7417896400       21.9569176500       16.8958318300
  H        19.5529506200       21.7793173400       19.4784124400
  H        20.9457303900       21.6721176600       20.2583380900
  H        19.5454368600       19.7422702900       19.9039420600
  H        20.1439131500       18.3725658300       20.3013345900
  H        17.5976420000       20.4218699300       20.8370028500
  H        17.0589776800       19.1409300400       21.4959036500
  H        17.7245628100       22.6918362500       17.8632242800
  O        18.6701388900       22.3880115400       17.7841899300
  O        19.9377051800       21.4240269900       20.3148397000
  O        19.3296133900       18.7831492400       20.0132258000
  O        16.8990256700       20.1020300200       21.5094825100
      12
 i =        1, time =        0.000, E =       -68.8351890204
  H        17.9585963800       24.8149452800       20.4712873800
  H        20.9155920700       20.6689681600       19.0448758100
  H        20.3202163500       19.2373490100       19.2864481800
  H        19.1404691400       17.9361156800       18.0108150500
  H        19.2440315100       17.4144375900       19.3908821000
  H        18.4149621900       20.1169377500       20.3601531100
  H        17.6860625500       19.4062264600       21.5560130900
  H        17.3953764900       26.1012101200       20.0896856200
  O        17.0977277200       25.2528071500       20.5807540800
  O        20.4328383700       20.1774835100       19.7276834800
  O        19.7740859100       17.6038286600       18.6268446200
  O        17.5466809200       19.6682418100       20.6123523800
      12
 i =        1, time =        0.000, E =       -68.8502646693
  H        17.9910829800       22.4212573400       20.6522741900
  H        20.2205133900       20.9944497900       19.7107546400
  H        18.8115860500       20.2812932500       19.8673036400
  H        22.1423889300       19.6193915400       18.0512314600
  H        20.6745935600       19.0471744800       17.9848800300
  H        16.8895127800       20.6872226800       20.5214214700
  H        17.0138183000       19.3093052800       21.2345425500
  H        16.7422799300       22.8949083100       19.9988670200
  O        17.0578291900       22.5708738100       20.8154572600
  O        19.2441596800       21.1247976800       19.7666744500
  O        21.4045694700       19.3060092400       18.5966434300
  O        17.1819173300       19.7284769400       20.3807599300
      12
 i =        1, time =        0.000, E =       -68.8578333932
  H        17.4306824600       23.1256242600       19.5641969800
  H        21.2368074200       19.4318949400       20.9055607600
  H        20.1949165900       19.8794913900       19.8274911900
  H        18.8160276100       21.4929680900       18.3113359500
  H        19.5275564500       20.6993064600       17.2332931600
  H        17.3454782200       20.6117426100       22.3321822400
  H        18.5152140400       19.9660325900       21.5077154500
  H        17.4817379000       21.6425326300       19.9331686100
  O        17.3585762200       22.2172075100       19.1788052500
  O        20.3055748800       19.2276651500       20.6012048200
  O        19.6504279400       21.0020599200       18.1513397100
  O        17.5699497500       20.1827596200       21.5277778600
      12
 i =        1, time =        0.000, E =       -68.8632282650
  H        19.9718725800       21.3729878600       20.3494717600
  H        20.5628498500       19.2938843800       20.8038694600
  H        19.0705368600       19.5685035900       20.8163009000
  H        17.3351494900       19.9170862900       19.5718159400
  H        16.6312463700       19.0828648700       20.8107539100
  H        17.1131456200       22.0204151700       18.2326193200
  H        18.5056877500       21.5936953300       18.8865244100
  H        20.5826970000       22.8917861700       20.1700974700
  O        19.8641102600       22.2807188100       19.8515485300
  O        19.9095170100       20.0029071300       20.9519807800
  O        17.4535424200       19.2054126600       20.2802453100
  O        17.7062019800       21.2104852200       18.3736828500
      12
 i =        1, time =        0.000, E =       -68.8369311090
  H        19.4568789400       23.6322744800       19.9855769500
  H        19.2050771800       20.4664600500       17.8294105900
  H        18.9669687800       21.1379367700       19.2486603200
  H        18.4475949400       16.5613430200       20.3028161800
  H        19.6616161300       17.0189544700       19.7343133300
  H        18.4067064000       22.0680439500       21.2462027700
  H        18.4840263400       21.0287355600       22.4047105000
  H        18.1370658500       23.2524529700       19.4554330800
  O        18.5454861800       23.5766886200       20.2992889300
  O        18.8315425900       21.2981433300       18.2409230600
  O        18.8019945200       16.7011904900       19.3982880100
  O        18.6918012900       21.1597300500       21.4833180000
      12
 i =        1, time =        0.000, E =       -68.8322615110
  H        18.5968036700       20.6790919600       21.4633435500
  H        19.7248973800       19.2786608000       19.7791878800
  H        20.6823978100       19.9756527000       20.7003526000
  H        19.5754959400       17.5158946300       18.0770611700
  H        18.1854587500       17.8212801100       18.4747628700
  H        17.5987695700       24.1244929900       18.1556721500
  H        17.6600337000       22.6582118200       18.5570434100
  H        18.0862993500       22.0808827100       21.7728466600
  O        17.7796116300       21.1654244900       21.9273501100
  O        19.9304284100       20.1814268600       20.1329857000
  O        19.1306937900       17.8877645100       18.8074529400
  O        18.0714073800       23.5661588200       18.7573337000
      12
 i =        1, time =        0.000, E =       -68.8594137553
  H        17.5190809800       21.2586550100       19.6750697700
  H        20.4737835500       19.2945996100       21.6155343100