      36
 i =        1, time =        0.000, E =      -206.5976587128
  H        17.5511542800       22.1294222300       19.2150659300
  H        19.6066498900       18.5091583700       19.5215824400
  H        20.9744010400       19.2801216600       19.2933256600
  H        18.8879915700       16.1623932700       18.5131812000
  H        18.1096956900       17.2749435500       19.3698333600
  H        24.8884644800       21.4346636000       18.8003686400
  H        23.4084107900       21.7856373200       18.9444832600
  H        17.0241627600       19.4839900300       19.0472869900
  H        16.5405075900       18.6459189100       20.2944372600
  H        22.0872078800       23.6489697300       18.4811300400
  H        21.1475386700       22.4692792800       18.8995723800
  H        20.9162901600       21.0288571100       22.0644909500
  H        19.9928699200       20.4510261200       21.0165718800
  H        19.3345101000       21.3878950900       19.2301273000
  H        19.3384862000       22.4774695900       20.1769040200
  H        22.7478808000       19.0072237500       20.7432783800
  H        22.0801451600       17.8125430700       21.3913105700
  H        19.5793726700       16.2532213500       21.0829554600
  H        19.7229220300       16.4574843100       22.5792075700
  H        17.7543862500       19.6038173900       22.8227785000
  H        18.1197146000       18.2539697800       22.1858354500
  H        23.2504439900       17.7169723200       18.8040928100
  H        23.7868106500       19.2875190200       18.9617847000
  H        16.1129158000       22.1060830200       18.7630894400
  O        16.7064033300       21.7197243600       19.4022736900
  O        20.0200251700       19.4137338600       19.4951480000
  O        18.8321349800       16.5975715300       19.3722097300
  O        24.1246569500       21.0949611000       19.2350761300
  O        16.9793895800       18.5780828200       19.4249515600
  O        22.0977633200       22.7231429000       18.8312320200
  O        20.0665402900       21.2650567000       21.6210432600
  O        19.2401188000       22.3804118400       19.1735372600
  O        22.7759179100       18.4692205900       21.5682696800
  O        19.8880888300       16.9017055600       21.8078951600
  O        17.3388227800       18.7188918300       22.5552262200
  O        23.0256568600       18.6899114500       18.7785397900
      36
 i =        1, time =        0.000, E =      -206.6121353171
  H        16.7863700600       22.3921467400       18.4350458300
  H        18.9756587500       19.0473915800       18.2718860800
  H        20.4736130800       18.9825536600       18.2170071300
  H        17.3137367100       16.6715603500       18.6681087600
  H        16.8617167700       17.9454152900       19.4797198800
  H        25.4514142600       23.6528460800       18.9003334000
  H        24.4196306200       22.4598357600       19.0125529300
  H        16.5007405000       20.4208202100       19.9501171800
  H        16.9007791200       19.4995599600       21.3172783600
  H        22.1137373800       21.2342560300       17.9693725400
  H        23.2525548700       20.1624155200       18.0023892900
  H        21.4054313600       19.5264652000       22.4036799500
  H        20.9728105300       20.9777711900       22.8232429400
  H        19.7143211400       20.9460330700       19.2303595100
  H        20.4710137600       21.4049762300       20.5155406900
  H        21.9650310000       17.1310538100       21.9132934700
  H        20.7534339300       17.8900946300       21.4050271400
  H        18.7724621300       17.0813268100       20.4420060300
  H        18.7327087300       17.3257269300       21.9340033800
  H        18.7822768200       19.2968009200       23.0679159600
  H        17.4195488900       19.2247607300       23.6981849600
  H        22.1867007200       18.3731298900       19.7793390600
  H        22.5742932800       17.2931379500       18.7782751600
  H        17.9664125400       22.0999347600       19.5382518600
  O        17.0240865800       21.9206683800       19.2817844500
  O        19.7275700500       19.6856995100       18.1626992700
  O        17.6983847000       17.4846949600       19.0892569300
  O        25.3049655700       22.7652909000       19.2929144000
  O        16.5157232200       19.5143561900       20.3766772200
  O        23.0918398600       21.1108756700       18.0645205600
  O        20.5876936100       20.1226851000       22.5339861800
  O        19.8955861300       21.7826936500       19.7651946400
  O        21.7805106600       18.0702804400       21.5445728400
  O        19.3651666800       17.0031443900       21.2693007900
  O        17.8812085900       18.9388546200       22.9010265600
  O        22.3611735600       18.2557768300       18.7597897400
      36
 i =        1, time =        0.000, E =      -206.6219705301
  H        17.1215349700       22.0443604900       19.1201914400
  H        19.8842872200       19.0857242500       18.5832273000
  H        21.2747599300       19.6388472000       18.6993701300
  H        18.8099398100       16.5179157600       18.6729351300
  H        18.1239654500       17.9201358000       19.0752099500
  H        23.3318646400       22.0101173700       18.7047416600
  H        23.6920074900       21.4640489000       17.3411450000
  H        16.6380098600       19.7478338800       19.4943785600
  H        15.9314945700       18.4866158200       18.7144252200
  H        21.5895000600       23.1146050000       20.1794049500
  H        21.9091007300       24.1743582600       19.1104498600
  H        19.8670096300       19.2906671500       21.8357866600
  H        20.2853549900       20.4291142900       23.0331447200
  H        19.8274173900       21.2484601800       19.4767571400
  H        19.5849424000       21.4979233500       21.0674177300
  H        23.3431361400       17.7398067500       22.1284056400
  H        21.7642697000       17.8905449100       21.8717020500
  H        19.8573556800       17.4053616200       20.5284948000
  H        19.0230878500       17.4103805900       21.9245051000
  H        16.4955351200       17.6874770300       22.5110755900
  H        17.0116035300       17.9236450500       21.0511662100
  H        23.0219461100       18.4375626400       19.8517285800
  H        23.4202152200       19.4884585800       18.7866113100
  H        17.9963549300       21.5395874100       20.2182878300
  O        17.0923408100       21.3577883300       19.8515954100
  O        20.3426838900       19.9278788400       18.6742255700
  O        19.0409919200       17.4566587300       18.9192116500
  O        24.0093333100       21.4358092400       18.2920826200
  O        16.5637603500       18.7623029200       19.4498630900
  O        22.3805202000       23.5291681600       19.6783365700
  O        19.7467007000       20.2901620500       22.2410361600
  O        19.6418818000       22.0300445400       20.1866230000
  O        22.6458274200       18.2778254200       21.7121000700
  O        19.9340636400       17.6256478000       21.4872600600
  O        17.0059813500       17.2172399700       21.7504737600
  O        22.8904149200       18.6718171100       18.9105818300
      36
 i =        1, time =        0.000, E =      -206.6279464585
  H        16.5439052300       21.9376747800       19.0621700400
  H        19.8210332500       18.8901019700       18.5749603900
  H        21.3959514000       19.1522089700       18.9322416300
  H        18.3132747200       16.5964443400       17.9669995800
  H        17.9903263700       17.6377796500       19.1631731800
  H        24.0377351000       22.1982073300       17.2637225400
  H        22.8755399300       22.7086553000       18.2603819600
  H        16.6230099300       19.3034848600       19.8653484400
  H        16.9863677400       18.4054543900       21.0736274000
  H        21.2061262500       24.2660015800       18.5091463100
  H        20.9128796800       22.8625689600       19.1889299500
  H        19.5149635300       19.4305025000       21.1924284500
  H        20.7838810600       19.4248497700       22.1592318400
  H        20.0371924000       20.8688305000       19.7050830900
  H        19.7777492600       21.7005183600       20.9913477200
  H        21.6361655200       17.4960546200       21.8432718300
  H        22.1910822100       17.9646659600       23.3165100000
  H        21.2196781300       16.0492927100       20.3174927100
  H        19.8778771100       16.6610877300       20.1414944400
  H        17.9905915100       19.4223524300       23.1706230800
  H        16.5173496900       19.1202987700       23.5057523600
  H        23.4817599300       19.6112340300       20.0370572700
  H        23.4097193500       20.6085041300       18.9365693400
  H        18.0909097400       21.7423980200       19.3177327200
  O        17.2206158000       21.2727284400       19.1486240700
  O        20.4470295700       19.3737054900       19.1486018800
  O        18.7206926700       17.1128120600       18.6746213700
  O        23.4688142200       21.9844360300       18.0164899000
  O        16.8619821700       18.3543337800       20.0769535300
  O        21.6278483600       23.4615216300       18.8502432300
  O        19.9183699400       19.9106158600       21.9458608900
  O        19.7632784900       21.8464615300       20.0113992900
  O        22.0850633600       18.2284002600       22.3455620300
  O        20.5610445700       16.4899485400       20.8445756100
  O        17.2827974500       18.7665191100       22.9533082000
  O        23.2468444100       19.6633190700       19.1047195200
      36
 i =        1, time =        0.000, E =      -206.6295254313
  H        17.2006590700       21.7724239600       19.5267431600
  H        19.4768182900       18.7501987000       18.4193483700
  H        20.9355965500       19.4015262900       18.3306559100
  H        18.4157835900       16.5891874900       19.2566095600
  H        17.8269269400       17.9717143100       19.7462588000
  H        24.4939195100       21.8027694200       17.9917729400
  H        23.3608679400       22.4883547000       18.7466943600
  H        16.7075792100       19.7502504000       19.7590475300
  H        16.7413651800       19.0074778700       21.0657030700
  H        21.0675968300       22.7952600600       19.3165477700
  H        21.5355692500       24.2144111700       19.4074901400
  H        20.5329931700       19.1366014400       20.3975205600
  H        21.4709371400       19.1306260300       21.6190192300
  H        19.6562751600       21.1054495400       19.0534030400
  H        19.7049745900       21.4444142000       20.4663835300
  H        23.2003671900       17.6615429100       22.1897061400
  H        21.8174481000       17.1982513400       21.7014329500
  H        19.5866413000       16.9334001600       21.2960322000
  H        19.8391386800       16.6407411400       22.7199313200
  H        18.9196053000       19.5449786800       21.8934824200
  H        18.3591965500       19.0127871900       23.3246747600
  H        22.5208475100       18.9020677200       19.6561458100
  H        23.0741400700       20.2076114600       18.8931106600
  H        15.9371752900       21.6792389400       18.6633791700
  O        16.3408793400       21.3217082800       19.4955031200
  O        19.9123164900       19.5753218400       18.1346715400
  O        18.7794862800       17.3903511900       19.7254103300
  O        24.0340441700       21.8056039000       18.8426164800
  O        16.5864092300       18.8166336100       20.0903488800
  O        21.9100481400       23.3193895500       19.3517978100
  O        20.6144258800       19.5510618200       21.2952424900
  O        19.3409364700       21.8802351800       19.6736251400
  O        22.6199382300       17.7903039500       21.4162602800
  O        20.2973757300       16.5241202100       21.8746016100
  O        18.1145608900       19.1971667500       22.3801037300
  O        22.5816723700       19.3507359300       18.7811891500
      36
 i =        1, time =        0.000, E =      -206.6163951258
  H        16.8372327300       21.8606431700       20.6990303600
  H        19.7091086600       18.5255865500       18.1144466400
  H        21.2005345300       18.8158060900       18.0039805800
  H        18.1234044600       16.3107429800       18.8383226100
  H        17.8979622800       17.7401253600       19.3726420500
  H        24.4812020300       22.1087503000       18.5797135400
  H        22.9983553800       22.3602183100       18.7762912000
  H        16.5734660700       19.3497926400       20.3628771500
  H        16.5122717300       17.9866531000       21.0994478000
  H        20.4605060000       22.8410374900       18.7366237400
  H        20.7193334200       24.1864861200       17.8205931500
  H        21.5787211900       19.8007701900       21.8572850800
  H        21.4959238000       21.3819107500       22.2817609000
  H        19.5864190400       20.8620911900       18.6788684500
  H        20.1727938100       21.2031126200       20.0478300300
  H        22.3960757900       17.2751270700       22.4834031000
  H        20.9895324300       17.5686238300       21.6497608600
  H        19.1658204800       16.5725044100       20.6425813800
  H        19.1898937100       17.6935062900       21.8208867400
  H        18.2504893700       20.1798357300       21.7989335300
  H        19.6628198800       19.9287071800       22.1434994800
  H        22.5084672500       18.5072139000       20.5108239400
  H        23.2255829400       19.6635837200       19.7055207900
  H        17.9617322500       21.2306042800       19.9919433800
  O        17.1714111100       20.9766013500       20.4738242400
  O        20.2879442200       19.2228751000       17.9311508400
  O        18.4301503100       17.1948126500       18.6877601200
  O        23.8036372200       22.0925991200       19.3041197000
  O        16.5514869300       18.3476382100       20.1962863500
  O        21.1407722500       23.3922503300       18.2646916600
  O        21.1892424400       20.6843382800       21.6454104300
  O        19.4909933000       21.5444386800       19.3737669100
  O        21.8898017600       18.0000776400       22.0289490000
  O        19.5678796400       16.8226386800       21.4911396900
  O        18.8266209000       19.4259293500       22.0440260800
  O        22.8252965600       18.7672643200       19.5839569900
      36
 i =        1, time =        0.000, E =      -206.6312088329
  H        17.7518178300       20.9530075300       18.8639962100
  H        19.2884924200       18.7861938600       18.5460442400
  H        20.5769888500       19.4460344400       17.9108772900
  H        17.7398556800       17.0772459400       18.9456286700
  H        17.4486030100       18.1679901600       20.0549662600
  H        24.5122596900       21.9311684800       18.1793491100
  H        23.2274291500       22.2334589700       19.0402359800
  H        16.6099236200       19.8371641900       20.5723088200
  H        16.8387424100       19.1238052700       21.9452263400
  H        21.0607929300       22.4401182300       20.0921256400
  H        21.4245774700       23.9039048100       19.9496296600
  H        21.3732219600       18.7883826600       21.4074924200
  H        22.0829267900       20.0843511000       21.9287123100
  H        19.7857728200       20.6344438400       19.3275815300
  H        20.2489087500       20.5491870600       20.9047265300
  H        23.1481614100       17.3579180700       20.5063916900
  H        21.5951989400       17.0946458800       20.3121699500
  H        19.4362443200       17.0230720800       20.7702403700
  H        19.7563767800       16.1849643400       22.0737495900
  H        18.8793626600       19.7104255500       22.9780149100
  H        17.9259158800       20.5768391700       23.8130644100
  H        22.5934508600       18.7114037800       18.3965562200
  H        22.7435339400       20.1604821400       17.9749477000
  H        17.9146762600       21.7739818700       20.0363805800
  O        17.1401890300       21.3871262000       19.5005248300
  O        19.6072665300       19.6165255300       18.1270865600
  O        18.2061016600       17.6583629500       19.5165248100
  O        23.8371148000       21.4874958200       18.7668441400
  O        16.5943698400       19.0000198300       21.0364540300
  O        21.6760629000       23.0272111700       19.6337151700
  O        21.1740299500       19.6259898900       21.9538839800
  O        20.0419596500       21.1887112600       20.1416060900
  O        22.3461902500       17.6517526800       20.0073469400
  O        20.1619921000       16.7732841200       21.3908824800
  O        17.9419518100       19.8340015500       23.2309198300
  O        22.3052673100       19.3093925600       17.6869500800
      36
 i =        1, time =        0.000, E =      -206.6201111657
  H        16.7824756300       22.2114359600       18.3568404000
  H        18.8541498400       18.8221514500       18.1179018600
  H        19.9519895600       18.6440975300       17.0296186900
  H        16.7691737700       17.0409267200       18.9694457500
  H        17.4055491800       18.1091667500       19.8831105400
  H        24.8002809600       21.7189017400       19.7572462000
  H        23.4995732200       21.5907035500       18.8694265900
  H        16.7868767000       20.2591303700       19.8827076400
  H        16.8510095900       19.5830369100       21.2117422600
  H        21.3690882800       22.1361520800       18.5304147400
  H        21.9431540200       22.7622255200       17.2850594000
  H        21.0994820500       19.6955580400       21.8726824000
  H        21.1187152000       21.0799739600       22.4730742400
  H        19.6974358700       20.6194909300       18.9009825800
  H        19.9272922400       21.2427560500       20.3123456600
  H        22.9562445900       18.6278312700       20.9945213500
  H        21.8098670500       17.6338662900       21.7010283700
  H        18.9401579900       16.4671360500       20.3769495100
  H        19.0310683300       17.1475636200       21.7091747600
  H        17.5476823700       19.8761044200       23.4546377600
  H        18.8911059100       19.5433852500       22.7092017700
  H        24.8224482100       18.3410542900       20.7871346400
  H        24.1690815400       19.5985865400       19.7015001900
  H        18.1928062300       21.9169588000       19.0085569300
  O        17.2134688400       21.9896908100       19.2490096500
  O        19.3409685700       19.2910232800       17.4243243300
  O        17.6400399300       17.3442618300       19.2874894700
  O        24.0870708500       21.1208647000       19.5039209800
  O        16.4895032200       19.3757055200       20.3290245100
  O        22.2444071000       22.4799136400       18.1596302300
  O        20.4618512200       20.4593218800       22.0379190400
  O        19.7370574100       21.5190178200       19.3597848200
  O        22.2216419900       18.5265179100       21.7392908900
  O        19.5229278800       16.4813938300       21.1756269000
  O        17.9442649500       19.2080249900       22.8332857200
  O        24.1763279700       18.6306947200       20.0594548700
      36
 i =        1, time =        0.000, E =      -206.6184761136
  H        16.2896689900       21.6363903500       17.7742783300
  H        19.6396975200       19.0693016900       18.1905072100
  H        21.1630912600       19.3072135600       17.9437736900
  H        17.7729017900       18.2613529000       19.2963603300
  H        18.2719310300       17.1517127600       18.3433235100
  H        23.2412845600       21.5546135500       19.1044425000
  H        23.4790656700       21.9827760800       20.4557017100
  H        16.4841455100       19.9237047100       19.6533247000
  H        16.7511799700       19.1499141200       21.0087346000
  H        21.7523750200       23.8213984900       21.1726494000
  H        20.7630406300       22.9508787300       20.3065869400
  H        20.9507049500       19.7087139100       21.0494456200
  H        20.8258083400       21.2863604700       21.4172963600
  H        19.9036721600       21.1708707600       19.0790194400
  H        18.8979929900       20.9615889000       20.2166751200
  H        21.5461043300       16.8286242400       20.8253024400
  H        22.6578064500       15.7339189000       20.3471175800
  H        19.3316847800       17.3245985900       20.6945094000
  H        19.4017589200       17.4813680200       22.2583154500
  H        19.1097121500       19.9103358900       22.7910899400
  H        17.9659751100       19.7995826800       23.9343140700
  H        22.7335933000       17.9507454800       19.0533270400
  H        23.5924189400       19.2230248000       19.0381822600
  H        17.5961924400       21.5933339800       18.6192061900
  O        16.6294918900       21.2958117100       18.6089405600
  O        20.2562440100       19.8112804500       18.1657394800
  O        18.6165144700       17.8173317400       18.9828948600
  O        23.7858132700       21.2939716100       19.8480450200
  O        16.6882453100       19.0137182400       20.0318764300
  O        21.6987999700       22.9961762500       20.6333128200
  O        20.6414453000       20.3730719100       21.7570067800
  O        19.2585700400       21.7099093700       19.6510804900
  O        22.5095527400       16.6748062600       20.5452433500
  O        19.9587591600       17.3462161300       21.4266450800
  O        18.2112367600       19.4658227200       23.0620864600
  O        23.0198479800       18.6841278800       18.4031620600
      36
 i =        1, time =        0.000, E =      -206.6220349432
  H        17.6824432800       21.6037846700       18.7920249800
  H        20.0281417300       18.7067145100       18.8719503900
  H        21.2516189300       19.7373424600       19.0286397800
  H        18.7826698100       16.1893534800       18.9147157200
  H        18.0169678200       17.3143734200       19.6769353100
  H        24.8064089300       22.3680424600       19.5472017400
  H        23.3262429100       22.9103322000       19.3654797700
  H        16.9414377700       18.6414109100       20.6762186300
  H        17.0256851400       19.3207647100       19.3607484200
  H        21.0445963900       22.9253425800       19.6667293900
  H        21.6682614100       24.0779658600       18.8282166900
  H        19.7603015800       19.3649575400       20.7643838800
  H        20.2346259700       19.1488057500       22.1392917800
  H        19.6781781700       21.0076489400       19.2678577800
  H        19.2870387700       21.6716527400       20.6578549900
  H        23.1086034900       18.0525691300       22.2709229200
  H        22.1672453200       17.3211390200       21.2127205100
  H        19.9303363500       16.3700958100       20.8906198900
  H        20.8082243900       15.3497775000       21.7313901400
  H        18.0031425000       18.7696865600       22.2353851900
  H        16.8565915900       17.7326115800       22.6366438900
  H        23.1856927400       19.5483040100       19.9830876800
  H        23.2909358100       20.9008379200       19.0237838000
  H        16.5078292800       21.5860545500       17.7833842100
  O        16.8315364200       21.1561358500       18.5423147300
  O        20.2300743000       19.6221470800       19.1163668300
  O        18.9533116600       16.8975871900       19.5427552300
  O        24.0882891900       22.4249003700       18.9250303700
  O        16.7623480300       18.4422642200       19.6931196400
  O        21.8832853800       23.5156095300       19.6211829400
  O        19.4836335400       19.5859891900       21.6699219300
  O        19.4902398200       21.9661008500       19.7106192700
  O        22.7718070000       18.0956465700       21.3321553100
  O        20.7643131900       16.2013091200       21.3316179700
  O        17.0242303600       18.6767486800       22.2791619800
  O        22.7853401400       20.0970716600       19.3043639200
      36
 i =        1, time =        0.000, E =      -206.6273535400
  H        16.3744626200       22.2198056100       19.0628499500
  H        19.9078391200       18.1939499400       18.4058966200
  H        21.0122638400       18.9613823800       17.7285490800
  H        18.6436019000       16.3128184700       19.6253596300
  H        18.0909867000       17.8116506500       20.1426171100
  H        22.5401698500       22.2836942700       20.2833445700
  H        23.8358532300       21.5437631000       21.1099447300
  H        16.6947477400       18.9646980700       19.6382737200
  H        16.8549196200       19.2680959100       21.1485348400
  H        20.5370018900       22.5028717500       19.1413960600
  H        21.1576245100       23.8802276100       18.7331475600
  H        20.7463405000       19.1154172100       21.3993496300
  H        21.4186621100       20.5112509600       21.2109138900
  H        19.5230361300       20.2578232500       18.4138813000
  H        19.4870205000       20.5898036200       19.9803178800
  H        23.8328285200       18.0136357600       21.2465629600
  H        22.5019166000       17.5313685600       20.6778883000
  H        19.9657872200       17.0997292400       20.8997595100
  H        20.3799524000       17.1741450000       22.5130917000
  H        18.5048026500       20.7525347600       21.8839535500
  H        17.2814173300       21.3318455400       21.4715062800
  H        23.1417749800       18.3946694700       18.9510535100
  H        22.7251145900       19.7250815600       19.4428769300
  H        17.7932833800       21.6325076700       19.3156031800
  O        16.8830539300       21.6703195800       19.7392302100
  O        20.0227386000       18.7414760100       17.6387157100
  O        18.8770068200       17.2784150700       19.8304372400
  O        22.9195629700       21.5232053900       20.7802637300
  O        16.7396122600       18.4846498800       20.4800160700
  O        21.3658647200       23.0850453600       19.2959988000
  O        20.5448864800       20.0627273100       21.3746773700
  O        19.4064365900       21.0196059600       19.0849868200
  O        23.4538191900       17.5183703200       20.4918592700
  O        20.7393391400       17.1685149400       21.5610277200
  O        17.5719990900       20.7394304200       22.1609329800
  O        22.5719251100       19.1721847500       18.6871371700
      36
 i =        1, time =        0.000, E =      -206.6094221575
  H        16.3175320400       22.3939199000       20.1847488400
  H        19.7846961100       18.8673808400       18.2130369700
  H        21.2373071200       19.2805858000       18.6449246700
  H        18.6411369700       16.8749388400       17.9041416500
  H        17.8878404700       17.9006031800       18.9542919800
  H        23.6579026500       21.5763731800       18.7510797600
  H        24.7598821500       21.6487527500       19.8132843700
  H        16.7877607800       20.3240896700       19.5637890800
  H        16.6236542400       19.0992088200       20.4902587600
  H        21.2084164700       22.6613153800       18.9353044000
  H        21.7416351600       21.4616716700       18.0553124900
  H        19.6144491400       18.7743595900       21.9315481500
  H        20.5009953100       19.9212573500       22.6236587400
  H        19.6403968600       20.8745030700       19.6626524500
  H        19.0279356400       21.1996472000       20.9867361400
  H        23.2941699100       16.5846988800       21.8355322000
  H        22.0270333200       17.5179348500       22.0322221500
  H        19.7554123500       17.1318248800       20.4434324100
  H        19.3675793200       16.6480446900       21.9121188700
  H        16.7709016600       20.9884006100       22.5859627000
  H        18.2606210200       20.2990780400       22.6277335800
  H        22.8098097400       18.2731363500       20.1566441000
  H        23.3358518300       19.4898716300       19.3822938900
  H        17.7398623700       22.2362276400       19.5276033600
  O        16.7417233900       22.0359570000       19.3776100700
  O        20.3034692300       19.6229063100       18.5032651500
  O        18.6556157100       17.3102909800       18.7549450200
  O        24.5056815100       21.0465557300       19.0227811600
  O        16.8723272900       19.3363314600       19.5815234600
  O        21.9281491200       22.3540651800       18.3578273300
  O        19.6714542900       19.3932608100       22.6731783300
  O        19.4042156200       21.6720938700       20.2362685700
  O        22.9995438900       17.5149093500       21.6927561300
  O        20.0864544000       17.1229611300       21.3955403500
  O        17.4088565300       20.4069666300       22.0709572900
  O        22.6547558300       18.7764861300       19.2827459700
      36
 i =        1, time =        0.000, E =      -206.6088323412
  H        16.6291075000       20.6731887600       17.4829616400
  H        20.0538428500       18.6106441700       18.6254867400
  H        21.6321020300       18.5654721200       18.2829494800
  H        19.0382678900       16.5396455000       19.6869584100
  H        18.0914839200       17.7709272200       20.2092267300
  H        22.8450570200       21.4777175200       20.2098370700
  H        23.8063647900       22.0747851800       21.2763770100
  H        16.6420947500       18.9679873900       19.4242369400
  H        16.3598535900       19.0960526400       20.8696813300
  H        21.1531707400       22.7276382800       18.7522057400
  H        22.3777935100       22.9753280700       18.1333655100
  H        19.7984733900       20.1782291300       21.5111568500
  H        20.7407311100       21.4051890100       21.5817946300
  H        20.1984879700       20.5389536800       17.9421299500
  H        19.8125841900       21.0167879700       19.4203697300