       6
 i =        1, time =        0.000, E =       -34.4079791500
  H        18.3076299300       21.2504500500       22.8449827100
  H        16.5677616600       17.6917889800       18.9168847200
  H        17.7778503900       18.4356711400       19.6966792200
  H        18.7056072000       20.5457533200       21.4968429100
  O        18.3871360900       20.3453866100       22.4088491500
  O        17.2373816700       18.3865032800       18.8563865400
       6
 i =        1, time =        0.000, E =       -34.4157167876
  H        18.2977537000       19.5956998500       20.5139476100
  H        15.9396909900       19.1306631300       20.4490299600
  H        16.6029829700       18.4817560100       21.6552116900
  H        19.6517090800       19.7764746500       19.9189787500
  O        19.0450034200       20.2413059300       20.5805281900
  O        16.6341206200       18.5497490500       20.7110571100
       6
 i =        1, time =        0.000, E =       -34.4159240513
  H        17.7292913600       18.5712157600       22.5135159100
  H        18.4844559400       19.3497508700       18.6152393200
  H        17.5444185200       20.2641837000       19.4892995300
  H        17.8421498600       19.2474264300       21.1389689100
  O        17.9217336700       19.4100331000       22.1273012200
  O        17.6875707300       19.3527971800       19.2134362400
       6
 i =        1, time =        0.000, E =       -34.4138459486
  H        16.6193368000       19.5726881400       22.4106248000
  H        18.7901102000       20.2919260600       19.6844768000
  H        18.8252911100       18.6902622100       19.1682262700
  H        17.4571088400       19.2312129100       21.1358600900
  O        16.5578144600       19.3979546900       21.4374186900
  O        19.0457231100       19.3426029100       19.8628599000
       6
 i =        1, time =        0.000, E =       -34.4080133567
  H        16.2028843500       19.6511880600       23.2198257300
  H        18.9542743300       18.5989220800       17.3717482700
  H        18.0803425800       17.8797355800       18.4446175400
  H        16.3128836400       20.8629934600       22.3238129200
  O        16.8377725800       20.3759368900       23.0015231500
  O        18.9006855300       18.4145985800       18.3642281000
       6
 i =        1, time =        0.000, E =       -34.4152187434
  H        17.6638561000       19.1142002700       21.0053242300
  H        17.8185472600       20.6399366300       19.4804955400
  H        18.6867243200       19.5870345800       18.7338574700
  H        16.9934244500       18.4439610900       22.1523071300
  O        17.7442712100       19.0850609300       21.9994668800
  O        17.8926140300       19.6555569500       19.3655295800
       6
 i =        1, time =        0.000, E =       -34.4108751497
  H        18.0821955200       19.7572314900       20.9247164900
  H        16.5285109400       19.0328957200       19.4944992500
  H        17.8516029600       18.1777747100       19.3949259600
  H        19.0352087300       19.6714861700       22.0647270900
  O        18.1094836400       19.6478257900       21.9054539700
  O        17.5062974100       19.1649785000       19.4276067700
       6
 i =        1, time =        0.000, E =       -34.4153637015
  H        16.6250493200       20.6631046000       20.6351279900
  H        19.6113397200       18.9405586800       19.9848884800
  H        18.1988326900       19.0309311300       20.4858981600
  H        17.0412778600       20.8788256400       22.0077050300
  O        16.8952283500       20.1055434400       21.4193033900
  O        18.7218769700       18.5261855200       19.8359631900
       6
 i =        1, time =        0.000, E =       -34.4105052838
  H        17.9230868800       19.9976765600       21.2672089800
  H        17.9733489400       17.4156976500       19.8670994900
  H        18.5354468200       18.1038692100       18.6003626700
  H        18.2506238500       20.8073529700       22.5693471100
  O        17.5483063400       20.6183194200       21.9452427700
  O        17.9928157900       18.2143179900       19.3610318900
       6
 i =        1, time =        0.000, E =       -34.4117722384
  H        18.4814263600       19.5155271600       22.5934751200
  H        17.0384468400       18.4750514400       18.3993089900
  H        17.0055138400       18.1607185700       19.9502245000
  H        18.2550064400       19.9256166500       21.1416509000
  O        18.1314499100       20.3020425200       22.0560876400
  O        17.5295128200       18.5461998700       19.2640074800
       6
 i =        1, time =        0.000, E =       -34.4132954825
  H        18.5160665200       20.2650469100       21.5712839900
  H        18.1218520300       17.6828827600       19.2384194500
  H        17.4242474800       18.7259882900       20.1075847100
  H        17.9609287000       21.7463268700       21.5107203400
  O        17.8084649100       20.8363052500       21.1799836200
  O        17.7742027500       17.8642980500       20.1184791700
       6
 i =        1, time =        0.000, E =       -34.4107824189
  H        17.0727652600       21.6873821000       19.3552335700
  H        18.9366063700       17.7792920800       21.0120165900
  H        17.5597752100       17.4451841200       21.5270714500
  H        16.8337739700       22.2765546500       20.7500843000
  O        17.3861565300       21.6032253100       20.2906157000
  O        18.2985884600       17.0489803800       20.9942131900
       6
 i =        1, time =        0.000, E =       -34.4131844588
  H        15.9015086400       18.9972292500       20.7261193200
  H        20.3027446900       19.5650269200       20.9477586600
  H        19.6655015400       18.4194346800       21.7815048500
  H        17.0230511900       19.8851977200       20.2871419900
  O        16.0108165000       19.8333722900       20.2524533900
  O        19.5170559200       18.9650985600       20.9631896900
       6
 i =        1, time =        0.000, E =       -34.4159788957
  H        17.7207815000       18.9859528100       21.4031477600
  H        17.9297238700       20.0280569500       19.2734062200
  H        17.9967211600       18.7559954400       18.5325466000
  H        17.8319204600       19.2200029800       22.9060079100
  O        18.0865379600       19.6406647900       22.0247883900
  O        17.5304005500       19.1500490500       19.2933883200
       6
 i =        1, time =        0.000, E =       -34.4119946496
  H        16.8809470200       20.3916898500       21.6316419400
  H        18.9865150200       18.4458222600       18.7735852300
  H        18.1261738700       18.7566419000       20.0004603300
  H        17.6355921300       20.3792241100       23.0825933600
  O        17.5422138100       19.9425319700       22.2120482800
  O        18.0652690000       18.7862257000       19.0196131800
       6
 i =        1, time =        0.000, E =       -34.4137775153
  H        17.4580610700       20.6167558800       21.5493818700
  H        18.5652960100       17.9282831700       19.6876757200
  H        19.2854589700       18.0659099500       21.0570418900
  H        17.2134190400       19.6955199000       20.4242475200
  O        17.1330728000       20.6399741900       20.6677922500
  O        18.4181470500       18.1938053200       20.6123780700
       6
 i =        1, time =        0.000, E =       -34.4141849258
  H        17.5052029500       19.3769829300       21.0679697500
  H        18.2840742300       19.1073799300       18.9913369500
  H        19.3817186800       19.8105338700       19.7144019500
  H        16.5206825100       19.2058879400       22.4432454900
  O        17.1817304600       18.8036429700       21.8343408200
  O        18.4218177400       19.9548899500       19.4774192300
       6
 i =        1, time =        0.000, E =       -34.4159068075
  H        18.5218774000       19.4266736200       20.8694508600
  H        15.9576577700       20.2628558200       19.9365087800
  H        16.1549852200       19.0344791300       19.0599429200
  H        18.7600895500       18.2627316900       21.7837303000
  O        19.1183409100       19.1940049000       21.6341822000
  O        16.6299316400       19.5969148400       19.7133213100
       6
 i =        1, time =        0.000, E =       -34.4021399870
  H        18.0207270000       19.6986855300       22.8392939900
  H        18.5330493400       18.9379579500       19.9951827600
  H        19.1407984200       18.6439623100       18.5757701700
  H        16.4830895700       19.5184667200       22.4149318000
  O        17.2795773400       19.9345714300       22.1164273500
  O        18.2933518200       18.8681721100       19.0940082100
       6
 i =        1, time =        0.000, E =       -34.4095331065
  H        14.8207330700       18.4515933700       19.8659252500
  H        19.9023854700       20.9089640700       21.5987661200
  H        19.3354994400       19.9891983400       20.5164141900
  H        15.1078364400       18.0302691800       21.3203960000
  O        15.5936741200       18.2705820800       20.4874271300
  O        20.1689731300       20.4955591700       20.7560021400
       6
 i =        1, time =        0.000, E =       -34.4139779722
  H        17.4024923100       18.7685834400       21.3049070500
  H        17.4749206800       20.8626280800       20.4508088100
  H        18.8552184400       21.4518539100       20.9438164900
  H        18.0402926900       17.8695435900       20.2914475800
  O        17.1854029400       18.0660949100       20.6591296200
  O        18.4130264500       20.6009673400       20.6038637500
       6
 i =        1, time =        0.000, E =       -34.4085031256
  H        17.3076004100       20.9751263400       22.0014722500
  H        19.2595419900       18.5371568400       18.7591184700
  H        19.8953749900       17.4638115600       19.6412351000
  H        16.6807582500       19.8309986500       21.3605554900
  O        16.4210278300       20.7113185700       21.6831069900
  O        19.0910640200       18.0909196300       19.6572929400
       6
 i =        1, time =        0.000, E =       -34.4114336560
  H        17.8252483900       19.6429722600       20.9828359200
  H        17.6112386200       18.0830611400       18.9629191200
  H        16.6313489200       18.0845202400       20.0481063300
  H        18.7734350200       19.7858821200       22.2072067100
  O        18.2607215300       20.3129332700       21.5317967600
  O        17.3964056900       18.5655811100       19.7809641600
       6
 i =        1, time =        0.000, E =       -34.4079735291
  H        17.2040474200       19.7067987000       21.8549696600
  H        19.0402529900       20.1207272100       19.1607749600
  H        19.1929592700       18.6437931400       19.7857760300
  H        16.9925213100       19.1546240500       20.4816907100
  O        16.4858751400       19.1124167700       21.3747178800
  O        19.0711696800       19.6382306800       19.9958716300
       6
 i =        1, time =        0.000, E =       -34.4113413944
  H        16.3251430400       21.1500852200       21.5051402300
  H        18.4989600700       18.6565856000       20.4844173400
  H        19.5193098300       17.9984089300       19.6825879300
  H        16.4127086000       21.1688761400       19.9279697600
  O        16.3845959300       20.5419835700       20.7105883300
  O        19.2778960400       18.1237337500       20.6400349900
       6
 i =        1, time =        0.000, E =       -34.4113776319
  H        17.2065747400       18.7070846600       22.0813189900
  H        17.9306791200       19.5578818500       19.9859093700
  H        18.3555951200       19.7729157300       18.4565488600
  H        18.0044004500       19.9434294800       22.8844228100
  O        17.4881598500       19.6346137700       22.0659457100
  O        18.1276381400       19.0936440500       19.1707611500
       6
 i =        1, time =        0.000, E =       -34.4146752698
  H        17.5469680500       19.1945790200       21.2377744600
  H        18.9907518500       19.5888076900       19.4303975700
  H        18.3073681000       20.8107064000       19.9178560100
  H        16.8589942200       17.7067885900       21.3696358800
  O        16.7204307000       18.6649415500       21.0681298200
  O        18.8823360000       20.1061860500       20.2600925200
       6
 i =        1, time =        0.000, E =       -34.4149456543
  H        16.9722928400       20.4068676200       20.8429266700
  H        19.3449391500       18.3298679300       21.1634117500
  H        18.0394443000       18.8808501700       20.7548194600
  H        16.4203800900       20.6583036300       19.3957738900
  O        17.2647320400       20.5079288400       19.9048598500
  O        18.3964409400       18.2017694200       21.4106818500
       6
 i =        1, time =        0.000, E =       -34.4083281922
  H        16.7601371700       20.4847108400       21.3741222200
  H        19.6436561100       18.1361477500       19.5033076400
  H        18.6711308300       17.0531468300       19.0964452900
  H        16.9237763200       21.9039415400       20.8329679700
  O        16.4334192300       21.3825340200       21.5469243600
  O        19.1507853700       17.3711373600       19.8536782200
       6
 i =        1, time =        0.000, E =       -34.4077210771
  H        16.2076992600       22.6177064100       19.6209900500
  H        18.4566127200       15.8316458000       20.9781494000
  H        18.7844771900       16.8474442800       22.0519350400
  H        17.2984340700       22.6882120100       20.5796740900
  O        16.7575692500       22.0319356700       20.1374764900
  O        18.9054833400       16.6960892300       21.1104105100
       6
 i =        1, time =        0.000, E =       -34.4113125446
  H        16.5562912400       20.5486179100       21.8483129400
  H        19.5297151800       18.2831069400       20.7785981700
  H        18.2315467700       18.9533793500       20.7212124900
  H        16.3818664600       20.8234627700       20.3683795300
  O        16.9669685500       20.4322075600       21.0309828800
  O        18.6990958600       18.2565307000       20.1862996700
       6
 i =        1, time =        0.000, E =       -34.4080415717
  H        16.9981117800       19.7395120400       22.4123338800
  H        17.4313929800       19.0051596400       19.8465304100
  H        18.2494086800       19.8589253200       18.8451933300
  H        18.1628645500       20.1075365000       23.0469281800
  O        17.9322744300       19.6568422400       22.2529278000
  O        17.7248208300       19.0254339300       18.9369806300
       6
 i =        1, time =        0.000, E =       -34.4101898988
  H        16.8091806700       21.0605138700       20.6735480200
  H        19.2414247700       18.3973093200       19.9058065100
  H        17.7331827800       18.5800245800       20.4669813800
  H        17.3331391200       21.4128055300       22.0152868800
  O        17.3621921900       20.6358738800       21.3574537400
  O        18.2775675800       17.9998096300       19.9010888400
       6
 i =        1, time =        0.000, E =       -34.4128881871
  H        16.3529722400       20.8276799000       19.6027717200
  H        19.9986309500       18.8417655400       20.6470280100
  H        18.8904838600       17.8163195700       21.1236656800
  H        17.2845665300       19.7201673200       20.0863356700
  O        16.3264438600       20.0035434800       20.1329196400
  O        19.2244976200       18.7735663100       21.2265440300
       6
 i =        1, time =        0.000, E =       -34.4162766848
  H        17.4427841600       19.7657519200       20.7176167700
  H        18.4623592400       17.5641574700       20.1007687800
  H        19.7215325500       18.2408457400       20.8714472400
  H        16.9868551300       21.0171073100       19.9422288800
  O        16.7733306300       20.4690269600       20.6957812900
  O        18.7721372000       18.3470236500       20.6528292800
       6
 i =        1, time =        0.000, E =       -34.4137464657
  H        18.6349656600       19.7016494300       21.6526853000
  H        17.4820590200       18.4496370000       18.4910624100
  H        17.2960114700       19.2241693700       19.8162553300
  H        18.4094389000       19.6360618100       23.1662036800
  O        17.9295875500       19.4861523500       22.3375312400
  O        17.6657199500       19.3032063300       18.9169423100
       6
 i =        1, time =        0.000, E =       -34.4145423069
  H        17.3131721500       21.5473846600       20.5364871900
  H        17.8772010700       18.8320152500       20.4705228300
  H        17.9272586900       17.3084546200       20.5837675100
  H        17.7085321200       20.5359896500       21.6262636500
  O        17.0964136400       20.6453384700       20.8837658600
  O        18.5616653700       18.0676388500       20.3649847600
       6
 i =        1, time =        0.000, E =       -34.4118340404
  H        16.0916571300       20.5998995500       20.5803031700
  H        18.5880743300       19.0015934300       20.4254630400
  H        20.0821177200       19.2256136000       21.0056530800
  H        16.1837106800       19.9733132900       19.2434239100
  O        16.4563399700       19.8267693300       20.1476249700
  O        19.1942166300       18.8498814400       21.2247518500
       6
 i =        1, time =        0.000, E =       -34.4152241365
  H        18.1167662800       20.6935801700       20.1239059900
  H        17.8903275500       17.5916145300       20.0330555300
  H        17.8525672400       18.8958219900       20.8019836500
  H        16.8040607000       21.4045334400       20.3398585800
  O        17.3175738500       20.6167983400       20.6438998300
  O        18.3507396700       18.0733901000       20.7257072900
       6
 i =        1, time =        0.000, E =       -34.4123923715
  H        19.7035724400       19.1695728100       20.7901046200
  H        17.1503153100       19.5603828000       20.3306145400
  H        16.8098936100       18.2229943500       20.0220289300
  H        19.6517065100       20.3603648400       21.7250017200
  O        19.0708042200       19.6204507000       21.4066334500
  O        16.4304375900       19.1498935600       19.8641239000
       6
 i =        1, time =        0.000, E =       -34.4143063580
  H        15.6871406000       19.3302577600       19.8228613300
  H        19.5995344600       18.2329336200       20.5963842300
  H        18.3532198000       19.2069476100       20.8633571000
  H        16.4329109700       20.5327665600       20.3485740800
  O        16.3520118200       19.6182148600       20.4714441800
  O        19.3535317200       19.1527852200       20.8772221400
       6
 i =        1, time =        0.000, E =       -34.4139603790
  H        18.9414128400       21.1599847500       21.2649260000
  H        17.0497484200       19.1536634900       20.8054327100
  H        16.2681428100       17.9456155800       20.1510856500
  H        19.4135852900       20.1545790300       20.1756028300
  O        18.5829950100       20.4989918100       20.6040972600
  O        17.0217369600       18.2020148500       20.6963162000
       6
 i =        1, time =        0.000, E =       -34.4127309510
  H        17.3978873200       19.4668055400       21.2006805100
  H        18.8719131800       19.5883608100       18.8885880200
  H        17.3501356900       19.6394905100       18.6660468400
  H        17.2040479400       19.4587161900       22.6706506100
  O        17.6668201800       18.9824084800       22.0033994200
  O        17.9913961600       19.7350087900       19.3581959800
       6
 i =        1, time =        0.000, E =       -34.4133319802
  H        17.6770988000       19.4467394900       21.1536928800
  H        18.5518823900       20.1817941200       19.1065686600
  H        19.5058177900       18.8875247000       19.5288567700
  H        16.2730759400       19.9040313500       21.3624348300
  O        17.0030540700       19.4324735400       21.8766675900
  O        18.5805725100       19.2681395300       19.5022168900
       6
 i =        1, time =        0.000, E =       -34.4154855322
  H        16.9265349100       20.6688490800       20.4587396300
  H        19.5793969400       17.8319436000       20.3842179100
  H        19.7054261000       19.3643233900       20.2463281200
  H        16.8943792200       19.2506640400       21.0777032000
  O        16.4698211700       20.1515909300       21.1390281300
  O        19.0446357400       18.6311987800       20.1758799300
       6
 i =        1, time =        0.000, E =       -34.4090484716
  H        15.7807254400       21.4449657700       22.8545051800
  H        19.5545896300       17.2487444500       17.6261586000
  H        19.7947107800       18.2691303800       18.6858249300
  H        16.2752677100       19.9895084200       22.9850174500
  O        16.5644718800       20.9290592900       23.1597339700
  O        19.0571196800       17.8640272200       18.1561495400
       6
 i =        1, time =        0.000, E =       -34.4118322166
  H        16.6161743300       21.3109060900       21.6217704100
  H        18.3944841100       18.2736563700       20.6023281700
  H        19.0359856300       17.2219171000       19.7555450200
  H        16.9816513000       21.9181769000       20.2764821300
  O        16.5853706800       21.0951944000       20.6407640900
  O        19.0599732600       17.5862297600       20.6685279800
       6
 i =        1, time =        0.000, E =       -34.4077652519
  H        17.6967492100       21.0260690400       21.0461675300
  H        17.2946432700       17.5653882600       19.2004393700
  H        18.5465707500       16.6742154000       19.5587413600
  H        17.6609761600       20.4275156200       22.4398319000
  O        17.4154054500       21.2566048300       21.9655463900
  O        18.2191872400       17.6158137700       19.3444353100
       6
 i =        1, time =        0.000, E =       -34.4119220610
  H        17.2358097000       19.0276519300       21.0544029900
  H        19.0853881300       19.3860904400       18.7605285600
  H        19.9965374600       19.9155456300       19.8172437500
  H        16.6381152600       20.1948682000       21.9297206100
  O        16.3933051400       19.2990621900       21.5988579100
  O        19.1305952300       19.3949942800       19.7541733800
       6
 i =        1, time =        0.000, E =       -34.4147965414
  H        18.1065891700       20.0358120700       20.6756285400
  H        18.2212764200       17.2542936300       20.7289134400
  H        17.7215289500       18.0470445200       21.9487443200
  H        17.4361936600       20.6934206700       19.5294775600
  O        17.9909295900       20.9230693200       20.2973636600
  O        17.6256031100       17.9280928500       20.9724477600
       6
 i =        1, time =        0.000, E =       -34.4111380399
  H        18.8716731600       20.2951141700       19.9913011500
  H        17.3966713700       17.2843218500       20.8108790400
  H        17.2923526000       18.7846731900       21.1662205500
  H        19.1811807800       20.9632608900       21.4065333700
  O        18.4335763500       20.6731983300       20.8357686100
  O        17.1038051400       18.0962603900       20.4030341500
       6
 i =        1, time =        0.000, E =       -34.4072647293
  H        16.7460887800       19.4187690700       22.3642229600
  H        18.1406635200       17.8651967200       19.6204976500
  H        18.5038435500       19.2793174500       19.9620655100
  H        17.2604769200       20.6436980100       22.7300094600
  O        17.1893310700       20.1298073600       21.9053005700
  O        18.4797793800       18.6472363300       19.2514797800
       6
 i =        1, time =        0.000, E =       -34.4139918766
  H        17.5481133800       19.3773086700       22.3506521000
  H        17.9174162400       19.3735389000       18.8952684300
  H        18.7922255700       20.1804153000       19.7509836000
  H        17.6550365000       19.0603979400       20.8791732500
  O        17.7575058600       18.6255088700       21.7588049300
  O        17.8321113200       20.1020969200       19.5744316900
       6
 i =        1, time =        0.000, E =       -34.4165594005
  H        15.5816052100       19.3632832500       20.5359849000
  H        18.9253790400       18.9898400100       19.4589497500
  H        18.4712359900       19.2211488400       20.8599496800
  H        16.2429410300       20.2520686500       21.6028661200
  O        16.4683511400       19.5593203100       20.9509850800
  O        19.2908493600       19.1787012800       20.3456038400
       6
 i =        1, time =        0.000, E =       -34.4082912569
  H        15.0376829400       18.7178626200       20.5580420200
  H        19.0951221600       20.1153894000       21.4777980400
  H        19.9788869100       20.6380133800       20.3109648800
  H        16.3027239100       18.0296380100       20.3719574400
  O        15.9353570000       18.9488680200       20.4585374700
  O        19.7486637600       19.8096574100       20.8216066800
       6
 i =        1, time =        0.000, E =       -34.4120897683
  H        17.2262355600       19.6480863200       22.2970643800
  H        17.2510930100       17.8195227100       19.6898159800
  H        18.0160456300       19.0809408500       19.7892959100
  H        18.3979545100       20.5902810100       22.5843449100
  O        17.6709022900       20.4568843800       21.9693996800
  O        17.9830710800       18.3244530500       19.2073072000
       6
 i =        1, time =        0.000, E =       -34.4139612016
  H        17.1968783100       20.0867391900       20.9657275400
  H        19.9794767600       19.4189065200       19.7104600200
  H        19.1002800400       18.1342037100       19.5951676200
  H        16.2253282000       19.0587921400       21.5858216400
  O        16.2444127200       19.9109278400       21.1725242500
  O        19.3080843300       18.8981432500       20.1619031700
       6
 i =        1, time =        0.000, E =       -34.4071564405
  H        16.1781268500       19.1135870700       21.8570138300
  H        19.0179550500       19.2340654900       19.6414271500
  H        20.1430710000       19.3840720800       20.6791161200
  H        15.1185222500       19.4948685000       20.8267954400
  O        15.7321854400       19.8815025000       21.4813785300
  O        19.9491098200       18.8943055500       19.7807723000
       6
 i =        1, time =        0.000, E =       -34.4143775087
  H        16.7521726300       19.6717554000       22.0700065300
  H        19.2151825600       18.1367529600       19.5676627700
  H        18.2120342500       19.1154617000       20.2965695000
  H        15.8698172600       20.5197872600       21.0210871200
  O        16.5152706500       19.7766505500       21.1011174500
  O        19.1917597300       18.9854753000       20.1641222700
       6
 i =        1, time =        0.000, E =       -34.4130855071
  H        16.5409659500       18.1497896800       21.9572841200
  H        18.2224585500       19.7131815900       20.4476091500
  H        18.4603283600       19.7040872200       18.9729740600
  H        18.0479919000       17.9265807700       21.8228687700
  O        17.3306268900       18.5133793000       21.5407237400
  O        18.2993787800       20.3716116700       19.7090541500
       6
 i =        1, time =        0.000, E =       -34.4140932856
  H        16.9163386400       21.2410444300       20.3435004800
  H        19.3693335500       19.1140023700       20.3199730500
  H        18.0144614000       18.3870133200       20.6526242800
  H        15.7727427200       20.5833067600       21.0346610800
  O        16.7164593300       20.4172794000       20.7830422900
  O        18.9890797600       18.2262976400       20.5202875200
       6
 i =        1, time =        0.000, E =       -34.4107782084
  H        17.2854086900       20.0381712600       22.4302380900
  H        17.6739956200       19.0912605200       20.3080272700
  H        18.0868962300       17.6789970400       20.1569124300
  H        17.1818405600       21.1634945400       21.2834917400
  O        17.4614612900       20.2347695500       21.4942699100
  O        18.2342955100       18.4940797700       19.6938943300
       6
 i =        1, time =        0.000, E =       -34.4150820623
  H        18.4961202000       19.5808946200       21.2679583400
  H        17.2092795500       17.3904999300       20.0088438000
  H        16.1759051600       18.4274289400       19.5167560400
  H        17.9631097400       20.8960471400       20.7682934900
  O        18.7640763400       20.5170471700       21.2293718200
  O        16.9558567500       18.3174630700       20.1236622500
       6
 i =        1, time =        0.000, E =       -34.4130780182
  H        16.3289724900       20.6091381100       20.8929186600
  H        19.2142165600       19.5536356900       19.6652371600
  H        17.9617874600       18.9132705700       20.4167580000
  H        16.5670448700       19.6910253300       22.2039450600
  O        16.9009602000       19.9531050300       21.3177701000
  O        18.8046327600       18.7256469300       19.9333861600
       6
 i =        1, time =        0.000, E =       -34.4145661253
  H        17.3111830000       21.1325590700       20.8479347400
  H        17.5594817800       17.6322965400       19.8731336000
  H        18.3681112200       18.7664778400       20.3992356700
  H        17.2674156700       21.0714818900       22.3340262800
  O        17.3799415000       20.4800251800       21.5839459200
  O        18.2982970200       18.2090754500       19.6498545500
       6
 i =        1, time =        0.000, E =       -34.4107553844