      24
 i =        1, time =        0.000, E =      -137.7265493831
  H        18.2398149500       23.0417426600       21.9107140000
  H        17.6574962100       20.9884298600       19.7514620800
  H        18.2751235300       21.9116776200       18.7292375700
  H        16.7255694900       19.0660448300       21.2608631800
  H        16.3155621200       18.0170814400       20.2844696500
  H        22.4730488500       19.4589236900       22.8943987000
  H        21.6410791500       18.6099662300       21.9515392100
  H        17.3693151500       21.1744770200       21.9879050800
  H        16.5335255600       20.4986135200       23.0190280200
  H        19.1661633000       19.4647752000       18.5607803700
  H        19.2519712500       18.0001847700       18.0491879200
  H        18.7572878600       18.0768965500       21.5100027500
  H        19.9535616400       18.3341510300       20.6154762200
  H        21.1346106700       20.4958319100       22.1465360100
  H        19.8639512800       19.9558145200       22.2547795000
  H        19.2659539300       21.8219421200       21.9344723400
  O        18.5011967100       22.2229810100       21.4570006400
  O        18.1195133600       20.9477473700       18.8634017200
  O        17.0456542600       18.1513017300       20.8893496500
  O        22.3602343100       19.2935007800       21.9683133700
  O        16.5850369900       20.5914670400       22.0500980000
  O        19.7559340000       18.6415725600       18.5327432900
  O        19.7383308500       18.2449560600       21.6107777600
  O        20.2481684600       20.6963740300       22.7313210700
      24
 i =        1, time =        0.000, E =      -137.7378422494
  H        18.9604369200       21.8053706600       24.5115587600
  H        16.3532355700       19.3526529400       19.0098321000
  H        17.3038402800       19.8956796900       19.9938567900
  H        16.4956625300       17.7950734300       21.1601198600
  H        17.3151172000       18.7735229500       22.0783387200
  H        22.6622216300       21.3805989700       19.9844948700
  H        21.4123583600       20.7002665400       19.2441056400
  H        17.5340792100       20.6434771200       23.3078666700
  H        17.2143436700       19.3817453600       24.2549860300
  H        19.9469496500       19.0617117000       18.8792969000
  H        19.1831999600       20.2930274600       18.4418831600
  H        20.3955589700       17.1175505700       20.2261181600
  H        18.9007484000       17.6508270200       20.4769646200
  H        20.8821454900       20.5281393500       21.4211223500
  H        19.9313035900       19.3138761900       21.7686360300
  H        19.3697986700       21.5220892400       23.0486485400
  O        18.7078575600       21.9675391400       23.5790421600
  O        17.0659260200       20.0649165400       19.0858824100
  O        17.3657794900       18.2871132500       21.2328717500
  O        21.7078511400       21.1302495200       20.0884141500
  O        17.0292446900       19.7809141600       23.3593924900
  O        20.0921690600       19.9372016900       18.3868285700
  O        19.7901065300       17.8662220700       20.0971223000
  O        20.5172007800       19.9889182400       22.2137884200
      24
 i =        1, time =        0.000, E =      -137.7369907486
  H        17.2784740100       22.2820469500       21.5956322500
  H        18.3678668300       20.0453069100       20.8018932900
  H        17.8673988800       18.6167025500       20.6586129800
  H        15.7903267000       18.0579015200       21.0308707000
  H        16.6768613300       18.5687800800       22.2294204100
  H        22.3627441600       20.5846457200       19.0637587100
  H        21.2691698100       19.5935861400       18.8935099600
  H        16.6317348800       20.6861171500       22.4911725500
  H        16.4726191200       20.2214992600       23.8866528200
  H        19.4747680000       18.1263585000       18.6124955300
  H        20.0244679800       17.5844775100       17.2446959100
  H        20.2542462700       18.9645337100       21.8046133700
  H        21.4876408400       19.6903891700       21.2673682000
  H        20.7191984900       22.0700782800       21.0317243800
  H        20.7332148700       21.0847451500       22.1668385900
  H        18.8085642600       21.8719868500       22.0332333400
  O        17.8275643100       21.5373843800       21.8688925100
  O        18.6604137300       19.2093478000       20.3761126000
  O        16.6224258900       17.8491883300       21.4656196300
  O        21.6107019600       20.2536250500       19.5685868400
  O        16.0263799900       20.0645053300       22.9980669000
  O        20.1198533000       18.3785108700       17.9139039400
  O        21.0081189600       19.5044272800       22.1004927200
  O        20.3781030400       22.0475609900       21.9403850700
      24
 i =        1, time =        0.000, E =      -137.7404314510
  H        17.3603221500       22.4676503300       22.2280793100
  H        18.0785735200       20.9691463500       19.7440517400
  H        17.4579265200       19.7134834500       19.0454097600
  H        16.3278086200       17.3263033300       19.8889654700
  H        16.6144256300       18.4361408200       20.9173554000
  H        22.9397431000       20.3696286000       20.3370123300
  H        21.5679656700       20.0472383500       19.9510503000
  H        17.3467153300       19.5083491400       22.5827825600
  H        16.6411120400       20.5093187900       21.7793752500
  H        19.5778623600       17.8955895500       19.7297868900
  H        19.5760451400       19.4043814800       19.5531790600
  H        20.5696569400       17.6168507000       23.1755386100
  H        20.1133062900       18.2672353500       21.9185867600
  H        21.2054245700       21.3217668000       21.8362350400
  H        20.2566457600       20.3413877700       22.6495794800
  H        18.7182628100       21.9203551000       21.9568349700
  O        17.8221022300       21.8974111800       21.5511462700
  O        18.2242015100       20.3576286500       19.0010816300
  O        17.0801254200       17.8871778900       20.1653257500
  O        22.1194036500       20.8458559000       20.1470723200
  O        16.4606123000       19.6027111700       22.1363637000
  O        20.1882796200       18.6583440000       19.7622549000
  O        19.9707841700       18.3958847900       22.8703807700
  O        20.3797042400       21.3214068300       22.4421013500
      24
 i =        1, time =        0.000, E =      -137.7435690239
  H        18.6330350000       22.4198488000       21.3086464200
  H        18.1704639900       20.4211197400       19.7566305000
  H        17.3964334900       19.1467609400       19.8067491900
  H        16.2389923600       17.7201991400       22.0874595000
  H        16.8028219500       19.1112879000       22.0199287100
  H        21.3471799700       21.8334883300       19.4455506000
  H        21.1867709800       20.3169911600       19.5306604500
  H        17.0767602700       21.3359688300       21.8346497800
  H        15.5114745700       20.9865680700       22.3694783900
  H        20.9941048500       18.1104733400       18.8528921600
  H        19.6707234400       18.8591221700       18.8588889000
  H        18.8919711300       18.0755877800       22.0721711100
  H        20.0011532300       17.0712276900       22.3959875600
  H        20.9945294900       20.8905410300       21.8149935500
  H        20.4322119800       19.6701940400       22.6324389700
  H        19.1819960500       21.0027485800       21.8421746100
  O        18.5040938100       21.4764805700       21.2190068600
  O        17.9115182900       19.7197705000       19.1331323000
  O        17.0718343500       18.1762624000       21.9013031700
  O        21.4224287700       21.1050370900       20.0823320600
  O        16.4579757900       20.7636960100       22.4959628900
  O        20.6502350100       19.0101652000       18.6645237800
  O        19.8549699500       18.0059557000       22.0336066100
  O        20.4868982900       20.6550395700       22.5877265500
      24
 i =        1, time =        0.000, E =      -137.7286558893
  H        17.9524881100       20.7866397200       19.1105507000
  H        18.5588379100       17.6938859800       20.1184835200
  H        19.8630631000       18.2160542800       20.8281216500
  H        16.6404889900       17.0183277000       21.3075587400
  H        17.3150649000       18.5553672100       21.3953208100
  H        22.1952350600       22.0557526200       20.8214226900
  H        21.2857890700       21.0121307400       19.9982163200
  H        17.6840294000       20.4122002300       22.4809709400
  H        16.7850586400       20.5326820100       21.1187326200
  H        21.3606463900       19.9160837200       18.2409446300
  H        20.0662713600       19.3557062100       18.9805656600
  H        20.1147931800       17.8221684100       23.6210602700
  H        18.7155488100       18.2354409500       22.7455887700
  H        19.5645590800       20.5096600000       23.3175655100
  H        19.9242343400       21.2203542500       21.9268474100
  H        18.2494214700       22.1940123000       19.5934258600
  O        17.5085529800       21.5748261800       19.5027243000
  O        19.3722320800       18.2584827500       19.9781177600
  O        17.4241823000       17.5599369800       21.4825550300
  O        21.2768989700       21.6639831500       20.7410636300
  O        16.9972481100       19.9798433600       21.9107653400
  O        20.5821977500       20.2124194600       18.7544323100
  O        19.6239873100       18.4847981000       23.0865165000
  O        19.3387108700       21.2685693600       22.7259306100
      24
 i =        1, time =        0.000, E =      -137.7453861387
  H        16.9581031600       22.5148269500       21.1944251200
  H        17.7918177200       19.9416440000       20.0275577800
  H        17.9173862400       18.4530743100       20.0561984400
  H        16.3000865000       16.9948763000       21.4771282700
  H        16.8977969500       18.3017338400       22.0346750900
  H        22.7200133100       20.6852796400       20.1063779700
  H        21.5614733200       20.0127152900       19.2779412400
  H        15.4547484900       19.7507707500       23.2841459300
  H        16.6582332100       20.4703324100       22.5395720500
  H        20.4595932300       19.9231595300       17.3689586800
  H        19.9872175800       19.1721619800       18.5830525000
  H        20.4049057300       18.6596562800       23.1947297200
  H        21.1609346900       19.4244641100       22.0053900500
  H        20.3955280800       21.5863182700       20.9693322100
  H        20.0447144800       20.9411058100       22.3714629200
  H        18.1062837400       21.4574055300       21.3375341700
  O        17.1248198600       21.5515881800       21.1320654800
  O        18.4497657200       19.2580070500       19.8346826900
  O        17.0696957700       17.5822258800       21.3129549000
  O        21.7745218300       20.5510034900       20.1409379600
  O        16.4046945900       19.6629999200       23.0633042200
  O        20.8327937300       19.2817983800       18.0438493700
  O        21.0285524600       19.4235771000       22.9704678100
  O        19.6569517300       21.5182058100       21.6697864900
      24
 i =        1, time =        0.000, E =      -137.7071483529
  H        17.8246822000       22.0917799000       22.7000583600
  H        19.0247455400       20.4509031300       18.2407522100
  H        18.2316935200       19.4271759300       19.3119157500
  H        17.3075504800       17.7291290800       21.0674208100
  H        17.2205690600       18.9703632800       21.9794393000
  H        20.9442718300       20.1751583400       19.4949099700
  H        22.2878710200       20.8743457000       19.7071705700
  H        15.4410379800       19.1268899900       23.8171788800
  H        16.0604700100       20.4927177800       23.2473433200
  H        20.8327485900       18.4700141200       18.3013091200
  H        21.3949936700       18.0581651700       19.7256607900
  H        20.7170608800       18.6061118400       21.7832635200
  H        19.4261946400       18.3918961900       20.9605200300
  H        20.0443848100       22.0014243300       22.3743863100
  H        19.4802293900       21.1266089200       23.4794795500
  H        16.4697366800       22.0200468100       21.8882429600
  O        16.8846524400       22.3909460000       22.6973843300
  O        18.8823429000       19.5254653000       18.6098433600
  O        17.7482687700       18.6236363100       21.2130713300
  O        21.2845317800       21.0998113300       19.7997288500
  O        16.1188772600       19.5555173000       23.2321191100
  O        21.7131341800       18.3598072000       18.7960951000
  O        20.3255267900       18.0008666700       21.1721570100
  O        19.3914295300       21.2907948300       22.5058551200
      24
 i =        1, time =        0.000, E =      -137.7293104779
  H        19.2138589600       22.1714935600       20.5486655400
  H        19.4462531200       20.1274381900       20.1376042100
  H        19.5312014000       18.8111817400       20.6236294400
  H        15.5084497400       18.5328788000       20.9091156000
  H        16.0831560400       19.8155222300       21.7752050600
  H        22.8340863700       20.1860000000       20.6798528200
  H        21.2534338800       20.4244983100       20.5146108600
  H        17.0002850600       21.7726003100       21.4441160500
  H        15.8812639000       22.0917878600       22.4784723400
  H        19.3687649400       17.7703952100       17.5579506500
  H        20.5920175200       18.4999559200       17.8183399700
  H        17.6216257700       18.3496425500       21.7883034100
  H        18.6580073000       17.1539843700       21.7648542900
  H        21.0973629100       20.4972830400       22.8810844600
  H        19.6708637700       20.0889184000       23.3324827100
  H        19.3742484000       21.5404790500       21.9744989300
  O        18.7571844200       21.5876453800       21.1543337000
  O        20.0632264200       19.3960331800       20.0499624000
  O        16.1451523000       18.8424114500       21.5804827400
  O        22.1255939700       20.8450881400       20.9072413100
  O        16.0381575500       21.5539374000       21.6917263000
  O        20.3292302100       17.6625476000       17.4006821500
  O        18.6139483800       18.1428450900       21.9826876900
  O        20.2493904800       20.8275936800       23.3757118700
      24
 i =        1, time =        0.000, E =      -137.7150000475
  H        18.2115660100       21.0425392400       20.3482569600
  H        18.1060205200       18.1844002800       19.3786525200
  H        17.3440921200       19.0219511000       20.2885478000
  H        15.6476496700       20.4880443500       19.7453176300
  H        15.5930941700       20.6954951600       21.2493765400
  H        21.8393270000       19.5163511100       19.5255920300
  H        23.0493271300       20.2209286300       20.2210929700
  H        17.1926723000       19.1873748500       23.3383220900
  H        17.8162089900       20.5625298800       23.3832307200
  H        19.9119471400       20.6667335800       18.6923246800
  H        20.2440326200       20.3853494600       17.1654507400
  H        19.9211910700       17.6879238300       22.3531792500
  H        18.5093579000       18.2137376500       21.9918472900
  H        21.2678899800       20.6004300100       21.8314732100
  H        20.2063346400       19.9764968900       22.9999929000
  H        19.6558767700       21.4026936700       20.9353984200
  O        19.0427640700       21.4591141500       20.1024361700
  O        17.8428264500       18.1532614900       20.3142258000
  O        16.1878638700       20.3635554200       20.5282451500
  O        22.1421617100       19.8890544300       20.4125585700
  O        17.0613873700       20.0558830500       23.7385092000
  O        20.2660791000       19.9869118200       18.0515750600
  O        19.1506793600       18.1947450500       22.6660330500
  O        20.5410687200       20.7543844500       22.5044421500
      24
 i =        1, time =        0.000, E =      -137.7264676078
  H        18.2642815100       22.2652985300       19.7977289100
  H        18.1279255100       19.7381218000       19.2796208400
  H        17.0706813100       18.7269820100       19.7975035200
  H        16.3244484900       18.9038056100       21.7313880300
  H        16.4243264600       17.3576750800       21.5904573200
  H        21.4641580300       22.6653304600       20.4691434500
  H        21.8278770100       21.1818545200       20.4155652700
  H        17.0325142200       20.9816190500       22.0038840700
  H        16.9727391700       20.6552183400       23.4773673400
  H        21.1745046900       20.1121700400       18.7530221200
  H        21.2434799200       19.1620817900       20.1439044900
  H        19.0376778700       18.3765672800       20.2422632000
  H        19.9865787300       17.2529917100       20.7600357300
  H        21.1568646900       20.7887793500       23.0228742200
  H        20.3420032800       19.4041169100       22.9407522500
  H        19.0721167700       21.6177185100       20.9956683400
  O        18.2150570300       21.5859735200       20.4978520200
  O        17.8382377400       18.8281556000       19.1683545700
  O        16.2743113900       18.1602067700       21.0289322300
  O        21.1745216000       21.8095538800       20.8582035100
  O        16.5481915200       20.4525140500       22.6612284000
  O        21.7716315900       19.7022648700       19.4495281600
  O        19.6839447700       18.1548004700       20.9679446800
  O        20.6655788900       20.0791823200       23.5616670400
      24
 i =        1, time =        0.000, E =      -137.7322299766
  H        19.2648169000       21.9296439400       20.4472113600
  H        18.8921854500       19.5998482500       20.1514993300
  H        18.1596615100       18.1982778000       19.7870763400
  H        16.2334945800       19.0287397900       19.8823870700
  H        15.7569255700       17.6283725700       19.7368422000
  H        21.8423276400       20.6681746000       20.7420428800
  H        22.6458989400       22.0676125900       21.2819318800
  H        15.4221222000       20.3264070600       21.7851654500
  H        16.5615740100       21.0944583000       20.9470159400
  H        22.2742893100       18.5173370600       20.3261162200
  H        20.7904266600       18.7969852800       20.0951503900
  H        19.0023029400       18.5495379900       21.7629272400
  H        19.1734175700       17.6596350500       23.0160167200
  H        20.6208876300       21.2499373900       22.3450336800
  H        19.8106928000       20.2250135200       23.4247548600
  H        18.8181675600       20.9504756900       21.5974782700
  O        18.6772303800       21.1742206000       20.6318333100
  O        19.0378917900       18.5842978500       20.0639030000
  O        16.3588306700       18.2315751700       19.2368165800
  O        21.8574374300       21.5940858600       21.1952514900
  O        15.8666102300       20.3901712400       20.9655317400
  O        21.6897471500       19.2690506700       20.1682604500
  O        18.7980666300       18.4981703000       22.7430239100
  O        19.9015993600       21.2011825000       23.0689119700
      24
 i =        1, time =        0.000, E =      -137.7401707633
  H        19.1083312500       22.2090578100       20.0506309500
  H        18.7746700900       19.9844468000       18.8478693300
  H        17.6863371600       18.9363201700       19.2919162900
  H        16.1111915200       18.0270468700       21.9391541200
  H        16.4966308300       19.5344740800       21.6081495500
  H        22.7982841300       20.3236876300       20.1622862400
  H        21.5173628400       19.5743797200       20.3854388000
  H        16.6852123400       21.6534930200       20.6745222000
  H        15.4795583200       22.0774522200       21.6163475600
  H        20.3857896200       18.0816080800       20.9117763600
  H        20.3966696000       17.9846666500       19.4093624400
  H        19.1021499500       18.5083374500       24.0130592000
  H        18.5721447100       18.4646315600       22.5934246300
  H        21.1586130300       21.0193728700       22.1251709000
  H        20.0023154900       20.3065711700       22.8858391300
  H        19.2419972200       21.2073766400       21.0918875700
  O        18.5876369200       21.4599567600       20.3761934800
  O        18.4888278400       19.0409701300       18.7513589800
  O        16.8573890100       18.6589941700       21.7193657000
  O        21.8846696700       20.4576343100       20.4319845500
  O        15.7601797900       21.3992828200       21.0046799100
  O        21.0250758800       18.1420445300       20.1563711600
  O        19.4464715500       18.5163652700       23.0886969000
  O        20.2475416900       21.1791453000       22.5273550100
      24
 i =        1, time =        0.000, E =      -137.7452719872
  H        18.4183557800       22.0158553100       20.6209637500
  H        18.5674114200       19.6350541500       19.9518857700
  H        17.8593204200       18.3899567900       19.6815884700
  H        15.4208257400       17.8733162500       20.2585328800
  H        16.2516310100       18.6135909200       21.2638225800
  H        21.3321530500       22.9534199400       20.6469395000
  H        21.0991802000       21.6311096700       19.7962046600
  H        16.7416044200       20.5779052900       21.9383568200
  H        16.2138497800       20.0525498100       23.3670369100
  H        21.8431995700       19.5517600700       20.4424232900
  H        21.0982913900       19.4633317400       19.0848966300
  H        19.6885817900       18.0767706800       20.8223855300
  H        19.6049281500       17.4286703100       22.2665450800
  H        20.4582151800       21.1848494800       21.7755958600
  H        20.3310996500       19.6737506300       22.2914573400
  H        18.7303621500       21.1682482500       21.9844836900
  O        18.0463430000       21.3679549400       21.2837223600
  O        18.7899733400       18.7953861700       19.5304495200
  O        16.3128628300       17.8162514800       20.6131390500
  O        20.6634436100       22.3310047200       20.4060600900
  O        16.2844735500       19.8235489400       22.4298767100
  O        21.7880071500       20.0163106000       19.5528164800
  O        20.1270872600       18.0410101500       21.7693362200
  O        20.2766707000       20.6379000800       22.5596749700
      24
 i =        1, time =        0.000, E =      -137.7353685452
  H        16.7186063000       21.5164350300       20.0441247100
  H        17.7437653400       19.1448914300       19.7971726100
  H        17.8088402100       17.8032924600       20.4240242800
  H        16.1858442600       16.5783716600       21.6839695700
  H        16.5503443600       18.0145983700       22.1504631500
  H        23.0084631000       20.7371220600       19.5498546800
  H        21.6623147400       21.5260099300       19.4284608200
  H        15.7134650100       19.8459292800       23.2251414500
  H        16.4772416100       20.0879417400       21.9144396600
  H        21.2879293400       18.7697862200       20.1080179300
  H        19.8247808600       18.6462470400       20.6180438400
  H        21.1561758300       19.7330071200       21.8866268900
  H        22.1201418400       21.0853171000       22.0361358500
  H        19.2083206300       22.7762797900       21.1970283100
  H        20.0644007300       21.3580682500       21.4003149600
  H        18.1237770400       21.2025070100       20.7186553200
  O        17.1625404800       20.8411409500       20.6144576000
  O        18.3860897100       18.3901761700       19.8328659200
  O        16.8824240700       17.2679319400       21.5833542300
  O        22.6091952900       21.5906366600       19.7728640800
  O        15.7196479700       19.5757331400       22.2807518500
  O        20.7930048900       18.5975253500       20.9238017500
  O        21.2546400800       20.6319361700       22.3727496400
  O        19.4816087100       21.9005377200       20.7649009800
      24
 i =        1, time =        0.000, E =      -137.7288336787
  H        18.7407051100       22.6883223400       21.9287087100
  H        17.8687618100       20.0794955400       20.7561662500
  H        17.1362615400       18.8682272200       20.5914016000
  H        15.6434266500       17.1881122800       21.2842044300
  H        15.8166513000       18.5647847400       22.0920063600
  H        23.3101929100       21.3141742300       19.6255955300
  H        21.9683934500       20.8906344900       18.9031948100
  H        17.1620530800       20.7956817500       22.8116978200
  H        16.7487048500       19.9957299200       24.1244683400
  H        20.5076389500       18.6676096800       18.3525807400
  H        19.5371203000       19.5658189000       19.0370532400
  H        19.1114094900       18.5249033100       21.5977913000
  H        20.4339060100       17.9426224500       20.9491374400
  H        21.3725203700       20.9532128500       20.9349698900
  H        20.6980617800       19.7518427800       21.7949623500
  H        19.3627724300       21.4064411700       21.7856330700
  O        18.4156388800       21.7484834500       21.7338743500
  O        17.9767366400       19.1983516000       20.2641851700
  O        15.6896743000       18.1575931000       21.1969558900
  O        22.2828789000       21.4307125500       19.6446585900
  O        16.6457071400       20.0637519400       23.1640181900
  O        20.3627895400       19.6014831800       18.5908736200
  O        19.8981878800       17.9657112100       21.7505247800
  O        20.9063883100       20.7321135100       21.7762667500
      24
 i =        1, time =        0.000, E =      -137.7354472263
  H        17.1160417200       22.3569569200       20.1296634500
  H        17.9206278800       20.0310483400       20.0189653000
  H        17.6387503500       18.5437346400       20.2728317200
  H        16.1916778800       18.4822302700       21.8927809800
  H        16.5829909900       16.9606534100       21.5180002600
  H        21.8862545100       19.4251740000       21.8155947300
  H        21.8022342900       19.7642299400       20.2494512700
  H        17.0360970200       20.7174791300       23.2283202900
  H        16.5705890900       20.7893615700       21.7849409300
  H        19.9089956500       18.9829459700       19.3420305300
  H        20.3021863300       19.6711805100       18.1442687700
  H        19.6038073600       18.9646268200       23.2158373100
  H        19.8084364000       18.2377532200       21.9969028500
  H        20.9473404200       21.2520470900       21.1659190700
  H        20.9431435300       22.7140560600       20.5125571600
  H        18.6593309200       22.0212957600       20.6895487000
  O        17.6998432700       21.6437170600       20.4651597600
  O        18.4329681900       19.1058595800       20.0629827300
  O        16.3249274900       17.8483837900       21.1229470700
  O        21.9990749500       20.1457863700       21.1700574000
  O        16.4010097700       20.3285963500       22.5908960900
  O        20.7512813600       19.2244930100       18.8719194800
  O        20.3195029000       18.3808444800       22.8215933300
  O        20.4069082500       22.1123320300       21.0530971900
      24
 i =        1, time =        0.000, E =      -137.7595949576
  H        17.0483998600       21.7102779600       19.9829233100
  H        18.1701621300       19.6797165900       19.4166488800
  H        18.4878777200       18.1563759200       19.9713317500
  H        17.7615948400       16.7606039900       22.0098842900
  H        17.1658745400       18.1834261900       21.8029255600
  H        22.0681505200       22.0718210900       21.3168859300
  H        21.4220894300       21.4013577600       20.1692979200
  H        15.9804634600       19.8278421000       21.2927130800
  H        14.9421545500       19.1202240100       22.1764515600
  H        21.9319158600       18.7959391400       19.3584324500
  H        20.3231990700       18.9827500500       19.4676770200
  H        20.6437936100       18.9655813300       21.7201641500
  H        19.5276930700       18.6185979000       22.5044008100
  H        20.0257182700       22.0855819600       21.3969849300
  H        19.5821987800       20.9397030400       22.3746837800
  H        18.1548460300       21.3777377800       21.0298031500
  O        17.4003656800       20.9368754800       20.4869031200
  O        18.7300845700       18.8139321900       19.2202030800
  O        18.0626113300       17.6744718500       21.7325078500
  O        21.5584672400       22.2833066000       20.5201881300
  O        15.7415242400       18.9425070700       21.6693057900
  O        21.2217140000       19.2526423100       19.8651902500
  O        20.3314674000       19.1550028400       22.6192550900
  O        19.2692699500       21.8722290900       22.0442432000
      24
 i =        1, time =        0.000, E =      -137.7335914800
  H        17.2329134800       21.2290937400       19.7837584700
  H        17.4178234300       19.4174299600       20.2461563000
  H        17.3947691100       17.9065953300       20.3542796700
  H        17.1199413600       16.2513492400       22.1095278900
  H        17.2110864800       17.7840706200       22.3684108600
  H        21.4400710600       21.2056671000       18.5214586100
  H        21.1583961100       20.1822361000       19.6836315200
  H        17.4284927200       20.1573128000       22.6901505900
  H        18.6903300100       19.7359713200       23.3517742700