      39
 i =        1, time =        0.000, E =      -223.8530159182
  H        20.5992918700       19.4206176400       20.3786303000
  H        19.3169992200       23.1431621500       20.1912896300
  H        19.8554634300       21.7203886400       20.4409479000
  H        22.2532864600       16.2027437600       22.7661081900
  H        20.8267544200       16.2809591000       22.1978805500
  H        19.2056789100       20.4012443700       26.0580753700
  H        18.6560588000       20.9978436700       24.5834297100
  H        19.8917311100       16.8438215000       20.1810794000
  H        18.9054943100       17.0759152000       21.2979747700
  H        18.1648802300       21.5789970900       22.6532565200
  H        16.7971302700       21.8097724000       23.0956187800
  H        18.7932228300       16.8644601200       24.5278623900
  H        18.7265106800       18.4496802000       24.6722811100
  H        17.8428740500       21.9861004300       19.0738974000
  H        16.5121374600       22.6579686100       18.6374052500
  H        21.1260760200       18.4109387200       23.1862273300
  H        20.6884910700       19.5805110400       24.3130554900
  H        20.6549814000       15.5451870100       25.6799392500
  H        20.5952863300       15.9867011500       24.1392253800
  H        17.4930394000       17.9736773900       22.8353238300
  H        16.6512830100       17.2655247900       21.5334019300
  H        18.9233950500       19.8170423400       21.5135972300
  H        20.2283953000       19.9859431600       22.4892352400
  H        16.1369033300       19.7381808800       21.7506839200
  H        16.2270682400       20.9554120800       20.6330554000
  H        19.9734739400       19.5365567300       19.0347535100
  O        20.6306497300       18.9900781000       19.4866479400
  O        19.5217068100       22.3507620800       19.6993275100
  O        21.3672906000       16.6026750200       22.9442559900
  O        19.1779799900       20.2545071300       25.0958434900
  O        19.4507651800       16.3562212700       20.9292857900
  O        17.6962224400       21.8398822800       23.4825644500
  O        18.2657068100       17.6788041300       24.2751686600
  O        16.8676063400       21.8051985600       18.9714175300
  O        21.1566040400       19.3830105300       23.4529945600
  O        20.0615536200       15.6339184900       24.9463123000
  O        17.2213933900       17.9897613800       21.8496608100
  O        19.6508928100       20.4386895100       21.7177122800
  O        16.0666165100       20.6989405300       21.5990282500
      39
 i =        1, time =        0.000, E =      -223.8183215694
  H        18.7831763600       17.4760272800       18.9094482900
  H        20.6952969500       22.0885698100       20.7074736400
  H        20.3526022700       20.7928330000       19.8766972400
  H        21.9967765900       17.5118493100       23.3500031000
  H        21.1072946700       17.4365554900       22.1136806500
  H        19.5137031400       18.7464944300       24.9143359000
  H        18.9122671500       20.1718261800       24.8534456900
  H        19.9900932100       18.7187964200       20.0073341800
  H        19.2862796400       19.3195300200       21.2153393300
  H        16.9254303400       21.6308015200       24.1164495200
  H        17.4616825400       20.7264840700       23.0857856600
  H        16.0507274600       16.0976696900       24.7323387600
  H        17.1807692400       16.6700253900       24.0624150600
  H        18.5136430700       21.7423662800       19.5967691500
  H        16.9841508600       22.1542993400       19.0160451300
  H        20.9897209300       19.5707475300       22.5435463400
  H        21.1013602100       19.6459496100       23.9679203400
  H        19.2514957600       15.9420681500       24.9190359300
  H        19.8432298500       16.4393593000       23.5642292400
  H        15.8356748800       17.0874682100       22.5239892500
  H        15.0159004600       17.1444079900       21.1891709000
  H        21.7881069100       21.5419610000       22.9094715000
  H        22.6817311600       22.1704040700       21.8944634700
  H        16.7491081200       18.7549617500       21.5939027600
  H        17.0586174600       20.2036718700       21.0041020300
  H        17.9073101600       18.6184987800       19.6115380200
  O        18.6056041200       18.5200019500       18.9141812200
  O        20.1030528300       21.7586333400       19.9632711000
  O        21.4476612800       16.8535331600       22.8278160100
  O        19.7026682800       19.6973887100       25.1941985900
  O        20.1956662800       18.9353303700       21.0118413500
  O        17.4535394500       20.8151067600       24.1250423000
  O        16.2410257400       16.5498983500       23.8849230300
  O        17.5290060800       21.5848666900       19.5840329200
  O        21.7392672000       19.6326998100       23.2448520900
  O        19.0245321200       16.4191523800       24.1227882400
  O        15.9139451300       17.4678607700       21.6031702500
  O        21.9259536300       22.3696516300       22.4479652000
  O        17.4464729400       19.5333528900       21.6260177100
      39
 i =        1, time =        0.000, E =      -223.8386125434
  H        20.2206865800       19.8175324100       18.1147862300
  H        22.2008354600       22.6282260100       19.8534118300
  H        21.3949407500       22.0605215100       21.1433123300
  H        21.0506836200       15.8814329100       21.3189573000
  H        20.5165531100       17.2630080900       21.8691254000
  H        17.9564226900       19.5295877100       25.9651873900
  H        18.6286708300       19.6004855900       24.4477447800
  H        19.5324578700       18.6663361200       20.2593568600
  H        18.3489901600       18.0362165300       21.2600009200
  H        18.9908219600       19.7577861200       22.4509243100
  H        17.6983947100       20.6068505000       22.7798117500
  H        17.3084854800       16.7077429700       24.3167237500
  H        17.1642539000       18.1887784800       24.7120623900
  H        17.7201308600       22.5384291600       19.7951310100
  H        18.4300578500       21.3013816000       19.1265391400
  H        21.1166703200       18.1343968300       23.9470222300
  H        20.8741842200       19.0314848500       25.1324856400
  H        19.2901569700       15.7832469700       23.7955798000
  H        18.0375778700       15.9280095000       22.8488887800
  H        16.6483857900       17.7365762300       22.8345159500
  H        16.3858201100       18.5350144900       21.5419268000
  H        22.0859442200       20.8709276800       23.1914044500
  H        20.7493448100       21.3366538900       23.2597071400
  H        16.4001497300       20.8549632900       20.3135415300
  H        15.0309892000       20.1919842700       20.5439121500
  H        20.5310872500       20.8602685900       19.3009989300
  O        19.8267600500       20.2100317000       18.9335392000
  O        21.4225825700       22.1678535000       20.1502502000
  O        21.0727290000       16.4377356500       22.1274132100
  O        18.5908699300       19.0603599100       25.3757112400
  O        19.3164611100       18.4514023300       21.2075135400
  O        18.6058355500       20.4476737900       23.0764117300
  O        16.6409908100       17.3713675200       24.4427844300
  O        17.5355045600       21.6555619200       19.5000176600
  O        21.4835048100       18.9984770500       24.3618447400
  O        18.4108743700       15.4357190200       23.6018333500
  O        16.8257534800       17.6783304200       21.8225423700
  O        21.5893235100       21.6764683000       23.0458242400
  O        15.8599936800       20.3294965200       21.0402425000
      39
 i =        1, time =        0.000, E =      -223.8387519549
  H        20.9066984000       17.0738933100       19.9755066000
  H        17.9085309600       21.4970913600       20.4763461700
  H        19.4614486700       21.2469827900       20.6417236200
  H        22.3450269400       18.3466995200       21.8972538400
  H        20.7899829700       17.8570442600       22.0737167100
  H        18.6826343700       19.8099379800       26.3272062500
  H        18.8715804500       19.9957112400       24.7550238900
  H        18.9982725200       17.4304035700       20.8131677100
  H        19.3668271500       16.7322583400       22.3637698600
  H        18.8353386900       21.2206447700       23.1102708300
  H        17.4538615900       20.9506635600       22.6572518200
  H        17.0819064400       17.7457661800       23.7064794800
  H        16.8664575700       19.3404479700       23.6365486100
  H        18.8236535700       18.7674919300       18.9648614900
  H        17.5025712400       18.4815307700       19.6582655900
  H        21.5777146900       19.5360247200       23.6495227900
  H        21.0696248400       19.9477917000       24.9692866600
  H        18.4970868200       16.5060473900       24.8227749000
  H        19.2932702600       17.8171237200       24.6093808200
  H        16.2208775400       18.5897534100       21.6076343200
  H        15.3348902800       18.5900690500       20.2339979400
  H        21.0299162100       21.3717137600       23.4222278500
  H        20.5355869800       22.8414260300       22.9420762400
  H        16.2877547300       20.4894524800       21.1837747600
  H        15.5894528500       21.9220219600       21.3754793500
  H        21.4320824900       17.1134058600       18.5427446800
  O        21.5854838200       17.4645276500       19.4402730400
  O        18.6873546500       21.0793541700       20.0457148600
  O        21.6251806800       18.2836727700       22.5499643900
  O        19.0724113200       19.3953438600       25.5152763100
  O        19.6531789900       16.9189076700       21.3980885900
  O        18.0438757300       20.7148666800       23.4742787300
  O        16.5943399200       18.4636064700       23.2033564900
  O        18.3860886500       18.0588356700       19.4451196700
  O        21.7504520100       20.2634440100       24.3368014900
  O        18.9681467300       17.0050856000       24.1078067400
  O        16.1550016000       18.9588611400       20.6670258900
  O        20.4267190000       21.8825608200       22.7470427300
  O        16.4565920600       21.4708796400       21.4846888700
      39
 i =        1, time =        0.000, E =      -223.8257706492
  H        21.1261302000       19.6691816400       19.6135264900
  H        19.7178662200       21.8208209300       20.4840371100
  H        20.8578445500       21.3060633100       21.3828034300
  H        18.9871377700       14.7508408300       22.8575558400
  H        19.5502793300       15.9805407000       21.9514189200
  H        16.8184642600       19.9974617700       25.8783464400
  H        17.1050163100       20.4443126900       24.5184593300
  H        20.2849356900       17.5666480600       20.3676271100
  H        18.9361127100       18.0181191400       20.7999369400
  H        19.0938614900       22.0138292100       24.1107825600
  H        17.8702532800       22.1276979300       23.1593319200
  H        17.2596937000       18.3184529700       24.2862114600
  H        16.4522929400       17.0988254900       23.7567008000
  H        18.4019568300       20.0663487200       19.0146840900
  H        19.3885065600       20.7413353500       18.1392001600
  H        20.0660836400       18.3578443700       22.6405108100
  H        19.9785934600       18.1804581800       24.1291039400
  H        19.9118871700       16.0690769000       24.2041263400
  H        18.6696763600       16.5478100400       25.0150275200
  H        17.9509304700       19.5138882600       21.9540853100
  H        16.8872594700       18.4506224800       21.7673224200
  H        20.7527552500       20.5186499600       23.6187464500
  H        21.7319522100       21.6280696600       23.9563934600
  H        16.9443768300       22.5941235900       20.9475651200
  H        17.2549360000       21.0372702900       21.0422557600
  H        22.1492486000       18.8115204900       18.7388651000
  O        21.3457601500       18.7240991700       19.2100424600
  O        20.4590278800       21.2405365400       20.4796856000
  O        19.8193896900       15.1795113800       22.5041450500
  O        16.3822600700       19.9125207300       24.9404602600
  O        19.5860174400       17.3565105800       21.0693102700
  O        18.1269971200       21.7797752000       24.0356173000
  O        17.3623380400       17.4927427100       23.7903882300
  O        18.5990067900       20.2016503400       18.0667251000
  O        19.8841391900       18.8879680200       23.4233842600
  O        19.6960986900       16.5676897600       25.0145014100
  O        17.2881094400       19.1754282400       21.2699846900
  O        20.9542043500       21.4464038400       23.3528265100
  O        17.6882078600       21.9693778600       21.2635120300
      39
 i =        1, time =        0.000, E =      -223.8467465513
  H        20.2866985000       18.5278047100       18.8515665300
  H        20.0775912100       22.0297551100       21.5447525500
  H        20.2126904500       23.2666409700       20.6537069900
  H        21.7451997100       17.9406866300       21.5512855700
  H        21.2682714100       16.8610826600       22.6462728800
  H        18.1875780400       20.2072971100       25.4993016500
  H        18.2412853400       20.5947168100       23.9128205500
  H        18.8739840100       17.1311856300       20.4992284300
  H        17.7125923400       16.8595746000       21.2441818100
  H        18.0986361100       22.1651271200       22.4056553900
  H        17.0677990700       21.0759872800       22.3591402200
  H        18.2071985400       16.7616041100       24.3543809000
  H        17.6786635700       18.1339443000       24.5989206700
  H        18.3431363900       21.2674141000       19.5785907300
  H        17.2352596100       20.6483240500       18.6001723200
  H        21.8217595200       19.0365548900       23.3740186400
  H        20.7275831500       19.7374073700       24.3676138000
  H        19.4274728900       15.9729543700       22.4608850700
  H        20.0979397600       15.1510812100       23.7184172100
  H        16.5970821200       17.3510856200       23.0675851000
  H        15.4710538500       17.3351676400       21.9095630000
  H        21.6410200800       21.0783416100       22.9251831400
  H        22.3018480100       21.3967121900       21.5988209900
  H        16.2315723300       19.2913968900       21.5305222800
  H        16.7281982600       20.4268407000       20.7407818400
  H        19.1039140100       19.1818590300       19.6104539300
  O        19.9744254700       18.7320701600       19.7313808000
  O        19.5555361600       22.4933603300       20.7843484200
  O        22.0202610700       17.4753236800       22.3827551800
  O        18.6421853400       19.9617594500       24.7095574800
  O        18.5797776200       16.4346492000       21.0894977100
  O        17.6323497000       21.6286551000       23.0471193600
  O        17.3441720200       17.1951448500       24.5227278200
  O        17.7988764800       20.4703087000       19.3469793900
  O        21.6854280800       19.7841587000       24.0171660100
  O        19.9140165000       16.0510605200       23.3711348400
  O        16.3395780800       17.7318815200       22.0680899500
  O        21.7230805000       21.8207945700       22.2418636600
  O        16.0298801300       20.2936100200       21.4060217400
      39
 i =        1, time =        0.000, E =      -223.8424386918
  H        20.0523117000       20.1453878300       20.3490620400
  H        17.9548373200       22.6889388500       21.2484505100
  H        19.3663262700       22.0501149600       21.0945366400
  H        21.5511122600       16.8965230400       23.6811776200
  H        23.0062525500       17.3600484600       23.7683583600
  H        18.7664324000       18.7721908700       23.7270804200
  H        18.5845133300       19.8479049800       24.8006836700
  H        19.9075715200       18.1077140000       20.7303442800
  H        20.8921275300       17.3768006900       21.7642340600
  H        15.9101928300       22.7332676700       23.0293235300
  H        16.2046796200       21.2667739400       22.2111039200
  H        16.7714768700       16.2364465000       26.0641466800
  H        17.6797815900       17.3596970600       25.3183291400
  H        18.3598090700       21.5462269200       19.2863746500
  H        18.1906450800       21.3930545000       17.7662611100
  H        22.0215470100       19.2062266900       23.6873578000
  H        20.6512538800       19.6332207500       24.0689586200
  H        19.6930195100       16.2309718100       22.9194512200
  H        19.1066799300       15.9104889500       24.3078741900
  H        17.2612004400       17.1389757400       22.9296286000
  H        18.4096891900       17.5162778900       21.9284808000
  H        21.1290385500       20.6379989700       22.5038208000
  H        21.5491768000       21.3707419200       21.1684788300
  H        16.3200377500       18.8853627500       21.2701511500
  H        16.3749958100       19.9019568700       20.1132330900
  H        19.1684479000       19.6893951100       19.1888555700
  O        19.9094632500       19.3431434900       19.8082429600
  O        18.7364860300       22.6470906500       20.6177324900
  O        22.2120637600       17.4297120900       23.1917152200
  O        19.0172965800       18.9897989700       24.6718121700
  O        19.9684912200       17.3479419200       21.4452929600
  O        16.4367852000       22.2285109700       22.2893759700
  O        17.0889078600       16.5889216600       25.1318848100
  O        18.1427269800       20.8853282100       18.6133964700
  O        21.4751871700       20.0429246000       23.8793557800
  O        19.9203510600       15.8557121500       23.7588383700
  O        17.5517711300       17.8493562800       22.3794625400
  O        20.7609138500       21.1045818200       21.6743148900
  O        15.9247981300       19.7300060000       20.9219148800
      39
 i =        1, time =        0.000, E =      -223.8284291004
  H        21.6358345400       18.2848786700       18.4540376400
  H        18.2626713400       20.6470825700       20.0437672500
  H        18.9484676000       21.7703252100       20.7718941400
  H        22.3744464100       18.3553555200       21.9968341900
  H        20.8940561600       18.3004856100       22.2176681300
  H        18.1579970200       20.0229255800       26.4270748300
  H        17.7849386300       20.0525729300       24.8913912000
  H        20.0207786900       18.1304134200       20.1310796500
  H        18.9566451400       18.6811716700       20.8972720500
  H        17.3421315500       21.0445119100       22.9164476600
  H        16.6748875600       21.7116739300       24.1229418300
  H        18.7337076500       16.6622610200       24.7661185600
  H        18.1485974300       17.9441311300       25.3269662100
  H        19.1943713000       20.7202163900       17.9764066000
  H        18.5286025000       20.1127076000       16.6740368400
  H        21.4126429800       20.2622346900       23.4044517500
  H        20.6079314100       20.6235408300       24.6481698700
  H        21.1131489600       16.9706707100       23.7850356500
  H        20.7477641800       15.4675063000       24.0265144300
  H        16.7894707500       17.0383176800       23.8139551800
  H        15.5763100400       17.9478910300       23.9737328200
  H        19.8880962400       21.6908459600       22.7471436600
  H        19.2410353700       23.0671232800       22.5858773300
  H        16.7805167400       18.5136975900       21.8796759900
  H        16.8713035300       17.8182937900       20.5449921600
  H        20.1770726300       18.6780868700       17.9569063200
  O        20.6886534900       17.9906372800       18.5692536200
  O        18.4800219400       21.6202280800       19.8657119600
  O        21.7562594900       18.3398346900       22.7276401300
  O        18.4266070700       19.7254092100       25.5451367000
  O        19.8127482300       18.3732094900       21.0594555900
  O        16.8544039000       20.8403064100       23.7626052700
  O        17.9494018000       16.9822614700       25.2474209000
  O        19.3806381000       20.2979214800       17.1203967400
  O        21.0265202400       21.0419582600       23.8659332700
  O        20.4955739600       16.3444840100       24.2711816800
  O        16.0926147200       17.5778467200       23.2643174100
  O        19.0636406100       22.1319138800       22.3215360400
  O        17.1194017100       18.7381938800       20.8853158800
      39
 i =        1, time =        0.000, E =      -223.8529309265
  H        21.7994956600       19.2093345200       18.4334078100
  H        16.5408935400       21.7051427800       19.9313705500
  H        17.7026413100       22.5977985400       20.2305745200
  H        21.3416935400       16.0027842200       22.1403994900
  H        22.5247037800       15.2377411800       22.9016385000
  H        17.8936380500       20.2420394400       26.7452421300
  H        17.9441028600       20.7799900900       25.2252435900
  H        20.7165708600       18.1431481500       20.5638019100
  H        19.4637021800       17.7154852700       21.4636695200
  H        18.4182113200       22.0587572700       23.3517226000
  H        17.1275378100       21.1356819500       23.1258841600
  H        19.1905422800       17.0912981600       24.5871538100
  H        18.3654993100       18.4272422700       25.0212113500
  H        18.1215802900       19.5330934900       17.6214043900
  H        18.2605211700       20.7337930400       18.7113257500
  H        20.6563331700       18.8359274200       22.6238596700
  H        19.6871633600       19.3755214200       23.6256419300
  H        20.5812588400       15.3502555000       24.2429961500
  H        19.2072695800       15.1389734700       25.2866447600
  H        17.7671411500       17.8506234600       22.7751056900
  H        16.7701025300       17.2619998000       21.7472246800
  H        20.0269502200       21.0362144400       22.3001446700
  H        20.5412795100       22.4216545900       22.0802580800
  H        16.6093964100       19.5917027600       21.5853730100
  H        15.1866911100       20.2213311800       21.6365387200
  H        20.4164634800       19.7109436400       18.9277556500
  O        21.3656343700       19.5673473200       19.2379766100
  O        17.2853393100       22.1610559000       19.4300435600
  O        21.5712254200       15.4161525000       22.9166714500
  O        18.1998273200       20.0420164500       25.8548855400
  O        20.3920905500       17.6180531300       21.3346157600
  O        17.6262582700       21.6813174200       23.7999309700
  O        18.6351529900       17.8551306400       24.2389093600
  O        18.6507328800       19.9285586200       18.3510521300
  O        20.4663496100       19.6998560800       23.0591319600
  O        19.9193431900       15.7468660300       24.9124339000
  O        17.3928873700       18.0367548400       21.8503046700
  O        19.6950053900       21.9607116800       22.0320023300
  O        16.0727751900       20.4863544200       21.4939196600
      39
 i =        1, time =        0.000, E =      -223.8292341932
  H        21.6668254000       19.9662327500       18.9350224600
  H        18.4864491800       23.9088174700       21.6443785900
  H        19.2149485800       22.6353363900       21.5795005400
  H        21.8853567400       16.6751427600       22.2355974200
  H        20.4537860900       17.1020665700       21.9330783800
  H        17.9979395200       20.1747711000       26.2692883200
  H        17.9220579800       19.9408370500       24.7745402600
  H        20.0803434100       19.2462799500       20.3530778200
  H        19.4518933700       19.3577335200       21.8201967200
  H        17.4327771600       20.5169629700       22.4090471900
  H        18.0698641400       21.7722629700       23.0257539800
  H        18.0112023000       15.9966637200       24.5010925000
  H        17.9158529300       17.5007887600       24.8582596600
  H        18.1118067200       20.5382679400       19.1458724000
  H        18.3949216800       21.9607544300       18.9116700100
  H        20.2269583200       19.7599797200       25.0991291400
  H        20.9860498200       18.6076777400       24.3119848700
  H        19.9601898400       14.7706952600       22.9512987500
  H        18.7327137600       14.1607265400       22.5212844800
  H        17.3548020700       17.2598256000       22.6152530200
  H        18.0215367300       17.8253211600       21.4023862200
  H        21.2024847300       21.4477827000       21.3755056300
  H        20.9819324300       21.5553831800       22.9247616700
  H        16.5946152000       18.7293140000       20.1722913500
  H        15.7911735900       19.7484177200       19.4536750200
  H        20.3639242100       20.8349357600       19.2557416500
  O        21.2034275900       20.4090043900       19.6991612100
  O        18.3334200600       22.9603115300       21.5138913400
  O        21.0100200200       16.5993581700       22.5928875700
  O        18.2761977500       19.4851697900       25.6255778200
  O        19.5219617000       18.7811361400       21.0407046100
  O        17.8307255600       20.8472495000       23.2460436400
  O        17.4441286500       16.7922973800       24.4124030300
  O        18.8300572300       21.0748040200       18.7302248400
  O        21.0193559300       19.5529839700       24.5740538500
  O        19.2017102600       14.4312103800       23.4000803300
  O        17.1822016900       17.3522099200       21.6547510500
  O        20.7295341400       21.9213802300       22.0806886800
  O        16.5354572100       19.7042181400       20.0929914000
      39
 i =        1, time =        0.000, E =      -223.8457545025
  H        22.3307093800       18.7717424300       18.6478625800
  H        18.0753718800       22.8154625000       19.9285520700
  H        19.2370348100       22.3654013700       20.6679492200
  H        21.9135095900       17.1194305300       22.3968528500
  H        20.6332702200       17.7869025300       22.6522161300
  H        16.8834047700       18.5105965200       26.2008850600
  H        17.1626471700       19.5057335600       24.7812718600
  H        20.8262228600       18.9243570400       20.6784255500
  H        19.3675828800       18.7559125000       21.3002742600
  H        16.3976889700       20.2180643400       22.7699670400
  H        17.5838848500       21.0270767500       23.2631104300
  H        18.2323221300       16.0523769100       24.1972542600
  H        17.5945867000       17.4464712300       24.4506830100
  H        19.7506637700       21.6649135600       18.4462143400
  H        20.9714374800       22.1910281200       17.9540477100
  H        20.6162659700       20.2545870300       24.6574542600
  H        19.2380103700       20.5798867900       25.2528184500
  H        20.4437487600       15.9206600400       23.8204935200
  H        20.5364385800       14.6372808300       24.6051254200
  H        17.8595153200       17.2003073400       22.4602409300
  H        17.5400741300       17.0330518800       20.9524528600
  H        19.6358665100       21.4085930600       23.2511560800
  H        19.7186543200       20.6803084100       22.0413706400
  H        16.0502500600       18.7457703400       21.4545890200
  H        16.1795014700       20.0906438400       20.5997489500
  H        21.1476500000       19.7853763200       18.4539599500
  O        21.4631668100       18.9928869700       18.9851029300
  O        18.9316002600       22.4245463500       19.7295864500
  O        21.2347250800       17.1947433400       23.1303404200
  O        17.5424809200       18.7945824400       25.4853710600
  O        20.3117165400       19.0463290900       21.5104873900
  O        16.8009629600       20.5743055800       23.6184633500
  O        17.4686527700       16.6091136000       23.8922493200
  O        20.5094296000       21.3532596800       17.8761013500
  O        20.0257764500       20.9919881800       24.7779629100
  O        19.8989902400       15.2996597700       24.3482574900
  O        17.9748170000       17.7044665500       21.5842117900
  O        19.1972283900       21.4713575200       22.3390730400
  O        15.7199722500       19.6116699800       21.2977131800
      39
 i =        1, time =        0.000, E =      -223.8339119466
  H        18.8911702200       19.0548061300       19.0314635200
  H        20.5772707400       23.2552108100       19.8976859400
  H        20.3253828000       22.1226432500       20.9520302600
  H        21.2082014600       16.2522039100       23.8645120300
  H        20.5996157300       16.0392300700       22.4215317800
  H        20.3857805800       20.8395952900       25.6450735700
  H        20.2125568000       19.3130653300       25.8108532100
  H        19.9115933900       17.5247128700       20.3921391500
  H        18.8657260300       16.9990704800       21.4002450600
  H        18.9124514700       21.7972720500       23.0663264200
  H        17.5811012900       21.0845081700       22.4220997300
  H        17.6169980500       18.2276672200       24.6889803600
  H        17.6052231300       19.6780085600       24.0020401300
  H        18.6031945000       21.7040530100       19.0807760300
  H        17.6248383300       21.3734654700       17.8984393900
  H        20.2270962800       18.4330802300       22.2453654500
  H        20.1735517300       19.3112471700       23.7284561800
  H        19.2752874700       16.2984836400       24.1856379600
  H        18.0112936500       15.9694962000       25.0553773700