      54
 i =        1, time =        1.000, E =      -309.9704294797
  H        18.1473154075       18.3921205807       16.9420042526
  H        20.9391203275       19.9001769411       18.0701283280
  H        22.2611525280       19.0619581823       17.8400352890
  H        17.9367574560       16.6892300294       21.7215263829
  H        18.1736771981       17.9681458946       20.8227250967
  H        18.0536414468       23.7421502745       21.3789220274
  H        18.5374085949       23.8145123133       19.8409982265
  H        17.5068149146       19.0247531446       19.0509234999
  H        16.7913511493       19.7896370879       20.3699392289
  H        21.0126580666       23.7887474164       17.8498426994
  H        21.5491578230       22.7899269388       18.8105144213
  H        20.2237100676       20.7896747584       22.4886679233
  H        19.8029162668       21.5795889984       21.1081552148
  H        18.3371062747       22.6668812326       17.0254545745
  H        17.1146038447       22.3289042394       17.8638461440
  H        21.6008507451       18.5165903067       20.8696277860
  H        21.9138397632       17.3479517019       20.0350621958
  H        19.7292166273       18.1328544851       22.3589086490
  H        20.9861852620       18.5188825355       23.3382047199
  H        15.0701087610       23.5331950160       19.0525252752
  H        16.4187157644       23.4500471161       19.7686830711
  H        23.4404096983       18.8837709836       19.3347317691
  H        24.8882146748       19.0944023878       18.9794053059
  H        19.1103750950       21.0912701892       18.6509486199
  H        18.9870649274       19.8912170323       19.5759354574
  H        20.0549381260       16.2312111940       20.1434690208
  H        20.3449994297       16.2684335106       18.7085837607
  H        18.5347432997       22.4950354049       23.0612901535
  H        17.7060346032       23.5849888467       23.7628194712
  H        23.3560245765       21.2577952421       18.9441770516
  H        23.9689553346       22.6563433282       19.2815443418
  H        19.9605659241       16.8301796159       16.2564577798
  H        20.4142400141       17.8677892317       17.3713961221
  H        16.4924863278       21.2597675479       21.8746829205
  H        15.9429620823       21.6817970320       20.5067480671
  H        17.9650366147       19.9310155244       17.0695598924
  O        17.6032183419       19.0687141713       17.3612596206
  O        21.3520469538       19.2851523594       17.4191796687
  O        18.6016051783       17.3211251026       21.4172349483
  O        17.8109902369       24.0034331762       20.4533632182
  O        17.5037496778       19.1472170053       20.0326673501
  O        20.7157980900       23.1890393381       18.5440606983
  O        19.9589320082       21.6846607710       22.0616970374
  O        17.8990402248       21.9137047716       17.4677412351
  O        22.3535242909       18.1267789289       20.4103960899
  O        20.2733924739       18.8736599694       22.7415755671
  O        15.8132882802       22.9322713662       19.1072162623
  O        24.0307999049       19.4902292776       18.7152662736
  O        19.7029700294       20.5595775515       19.3006599463
  O        20.8110601999       15.9982732854       19.5253985374
  O        17.6681143902       22.9349031368       23.0845421636
  O        23.1078779812       22.1614139226       19.2432310498
  O        19.7513783550       17.1066876220       17.1476512946
  O        15.8573192045       20.9256311760       21.1457095951
      54
 i =        2, time =        2.000, E =      -309.9618018865
  H        18.1355281156       18.3739976536       16.9113900016
  H        20.9193600740       19.8880677762       18.0748100465
  H        22.2619998759       19.0665566547       17.8194324494
  H        17.9612175157       16.6809474245       21.7447758974
  H        18.1632769595       17.9802933115       20.8375146431
  H        18.0598060176       23.7314831449       21.3738460763
  H        18.5380116956       23.8233589039       19.8623704944
  H        17.5048180341       19.0080003514       19.0400220645
  H        16.7895498084       19.7913579039       20.3623959003
  H        21.0304574678       23.7802652322       17.8598361685
  H        21.5497203316       22.7960434842       18.7972669698
  H        20.2180145897       20.7878698065       22.4930628555
  H        19.7945742541       21.5817155927       21.1247923346
  H        18.3615030048       22.6776596399       17.0525490579
  H        17.1070908956       22.3367492109       17.8765399459
  H        21.6143400162       18.5319868869       20.8396441992
  H        21.9216137843       17.3478214703       20.0650164806
  H        19.7229510692       18.1114429256       22.3516959871
  H        20.9881288558       18.4883047329       23.3431279146
  H        15.0335530225       23.5707840950       19.0352194307
  H        16.4061688004       23.4329926286       19.7514811304
  H        23.4294391740       18.8680451240       19.3252474641
  H        24.8748648896       19.0757114367       19.0047759864
  H        19.1139634798       21.0922714055       18.6368847264
  H        19.0042851431       19.8942539498       19.5612110151
  H        20.0669418279       16.2606162266       20.1359618653
  H        20.3384309225       16.2813504903       18.7282315569
  H        18.5128943920       22.4965966409       23.0414912599
  H        17.7047106110       23.5721248089       23.7810968356
  H        23.3502545628       21.2755794091       18.9606264974
  H        23.9380931755       22.6404292157       19.2726700129
  H        19.9596974715       16.8352762117       16.2629354357
  H        20.4082440646       17.8926867940       17.3613056397
  H        16.4918751732       21.2393068371       21.8741989029
  H        15.9631647171       21.7033466388       20.4822588678
  H        17.9604763362       19.9475006013       17.0643373023
  O        17.5994844791       19.0691282206       17.3579036982
  O        21.3554883572       19.2849568455       17.4203061168
  O        18.6013957776       17.3201165666       21.4101707177
  O        17.8088006739       24.0064725469       20.4498562434
  O        17.4996449280       19.1482461620       20.0391783741
  O        20.7159367102       23.1906499950       18.5433693618
  O        19.9621842831       21.6865586167       22.0576352839
  O        17.9012544487       21.9164577023       17.4642592609
  O        22.3537250771       18.1297032580       20.4108435515
  O        20.2742262417       18.8707581554       22.7434562656
  O        15.8106872293       22.9286205604       19.1068247731
  O        24.0345922652       19.4860405659       18.7151672597
  O        19.7028039498       20.5551661999       19.2990428382
  O        20.8119296899       15.9974780453       19.5264102444
  O        17.6788343718       22.9381311660       23.0839009523
  O        23.1017961582       22.1641629795       19.2497117660
  O        19.7551058742       17.0991349719       17.1547326153
  O        15.8518618783       20.9301809979       21.1467037977
      54
 i =        3, time =        3.000, E =      -309.9617105566
  H        18.1267692629       18.3553556502       16.8829975474
  H        20.8973563094       19.8771532375       18.0840776946
  H        22.2522891165       19.0760539665       17.7929307312
  H        17.9803825688       16.6712475099       21.7683363325
  H        18.1410289997       18.0029282777       20.8452147291
  H        18.0646858077       23.7199680366       21.3673028778
  H        18.5520422444       23.8287672949       19.8776704424
  H        17.4963183939       18.9932526315       19.0286101739
  H        16.7868059472       19.7930048559       20.3539529633
  H        21.0495581777       23.7801561832       17.8615105700
  H        21.5651790333       22.7917586922       18.7929398182
  H        20.2064594314       20.7968377312       22.4834045313
  H        19.7867486693       21.5748987076       21.1258313416
  H        18.3876816330       22.6866044246       17.0805068530
  H        17.0956830084       22.3439107565       17.8914924863
  H        21.6143193915       18.5614583235       20.8216096340
  H        21.9231022508       17.3287179165       20.0858664213
  H        19.7179054234       18.0935289583       22.3474845758
  H        20.9794114582       18.4604271263       23.3389889023
  H        15.0054789328       23.5977227173       19.0171824370
  H        16.3985748797       23.4162427562       19.7327597316
  H        23.4212279428       18.8646934104       19.3105409679
  H        24.8652972644       19.0603480662       19.0265680847
  H        19.1288066830       21.0901150907       18.6323752937
  H        19.0228213255       19.8970301449       19.5512165451
  H        20.0830820270       16.2867024853       20.1327170852
  H        20.3316287670       16.2945741799       18.7322511002
  H        18.5152221602       22.4862433883       23.0197630669
  H        17.7050632758       23.5699375501       23.8130596367
  H        23.3485497023       21.2821618551       18.9751527729
  H        23.9127572168       22.6279055952       19.2642369957
  H        19.9633826545       16.8365372463       16.2580167062
  H        20.3968693311       17.9121001941       17.3455626462
  H        16.4820963419       21.2150307137       21.8664261151
  H        15.9770778116       21.7147909555       20.4639048466
  H        17.9533415267       19.9608378593       17.0599155721
  O        17.5956406195       19.0697559793       17.3544071249
  O        21.3596877457       19.2841742976       17.4214920816
  O        18.6024120965       17.3182336627       21.4034352933
  O        17.8057606338       24.0096867859       20.4468488000
  O        17.4958226204       19.1491093680       20.0454953179
  O        20.7148866714       23.1925355016       18.5426062757
  O        19.9657454058       21.6882098907       22.0554234792
  O        17.9035771027       21.9192804242       17.4606744899
  O        22.3552740637       18.1329187812       20.4110378135
  O        20.2757086437       18.8676646473       22.7458384786
  O        15.8075092077       22.9257039622       19.1064908715
  O        24.0377932058       19.4809260922       18.7158231545
  O        19.7021091453       20.5512254530       19.2965771274
  O        20.8125398206       15.9970111748       19.5282383209
  O        17.6880861604       22.9414054172       23.0822302949
  O        23.0952679910       22.1672693248       19.2562873194
  O        19.7588825718       17.0924399338       17.1627583841
  O        15.8472058574       20.9356032193       21.1477194447
      54
 i =        4, time =        4.000, E =      -309.9690125044
  H        18.1165900666       18.3431980704       16.8611706614
  H        20.8761040547       19.8650756328       18.0955613933
  H        22.2403244757       19.0884955531       17.7651798351
  H        17.9953340714       16.6618380466       21.7911774301
  H        18.1095751005       18.0310571930       20.8500090027
  H        18.0668884643       23.7086196147       21.3591465859
  H        18.5785512083       23.8313962573       19.8865112432
  H        17.4819809125       18.9816068111       19.0226838420
  H        16.7818713915       19.7952844012       20.3455028933
  H        21.0687171811       23.7877784133       17.8558878112
  H        21.5886651018       22.7796132472       18.7961738292
  H        20.1905874651       20.8128460977       22.4622836252
  H        19.7792279712       21.5595665165       21.1113290508
  H        18.4144078196       22.6927761322       17.1100653286
  H        17.0870032420       22.3475553834       17.9049147750
  H        21.6027898191       18.6032150315       20.8135927925
  H        21.9202441574       17.2955226493       20.0999397557
  H        19.7160779039       18.0834852246       22.3473394832
  H        20.9611268578       18.4362244257       23.3264888385
  H        14.9961632034       23.6059859581       19.0003134314
  H        16.3996674859       23.4045621688       19.7174787312
  H        23.4150995551       18.8732279086       19.2911581750
  H        24.8599558450       19.0484929772       19.0447912192
  H        19.1532399735       21.0855531920       18.6365265280
  H        19.0367870691       19.8942390222       19.5477204524
  H        20.1009123931       16.3097880745       20.1363474746
  H        20.3264112445       16.3071192039       18.7221720665
  H        18.5412835423       22.4648220700       22.9971015656
  H        17.7079130568       23.5698605456       23.8498958725
  H        23.3505329332       21.2748559565       18.9871289701
  H        23.9047897264       22.6265576943       19.2565989929
  H        19.9702354293       16.8349594380       16.2465588791
  H        20.3800953059       17.9243940638       17.3251346237
  H        16.4673121872       21.1897372021       21.8558398892
  H        15.9838505606       21.7121130159       20.4563269914
  H        17.9425963530       19.9672686678       17.0571396166
  O        17.5920363520       19.0703987763       17.3504502763
  O        21.3639120435       19.2830803361       17.4225923160
  O        18.6044436877       17.3157010168       21.3968425608
  O        17.8020290486       24.0129839969       20.4443819741
  O        17.4923577493       19.1496776060       20.0512122715
  O        20.7131475840       23.1945774218       18.5417954820
  O        19.9695700139       21.6898016102       22.0548979182
  O        17.9056766979       21.9223967404       17.4571769372
  O        22.3579336592       18.1362248895       20.4109320853
  O        20.2776196320       18.8640648753       22.7485872559
  O        15.8028855898       22.9237207937       19.1057875366
  O        24.0404355508       19.4748938954       18.7171801763
  O        19.7013541113       20.5480344122       19.2931597165
  O        20.8129354719       15.9969096560       19.5306311575
  O        17.6958329687       22.9452272776       23.0800195677
  O        23.0875519154       22.1703871913       19.2629646513
  O        19.7628416902       17.0866186945       17.1713860717
  O        15.8431518683       20.9419559041       21.1481882019
      54
 i =        5, time =        5.000, E =      -309.9723242046
  H        18.1026431988       18.3415704709       16.8484459445
  H        20.8588610199       19.8495125433       18.1066012781
  H        22.2375994648       19.1012112608       17.7416362576
  H        18.0082264298       16.6552627492       21.8117329578
  H        18.0734619809       18.0578708056       20.8568762540
  H        18.0653288712       23.6981074623       21.3503000573
  H        18.6103126147       23.8333349866       19.8930259695
  H        17.4627814188       18.9735771477       19.0256637364
  H        16.7740874299       19.7984804946       20.3379785634
  H        21.0853742025       23.7989731270       17.8478721574
  H        21.6100901038       22.7644911887       18.8039672222
  H        20.1732889920       20.8274617787       22.4352724330
  H        19.7734288159       21.5379168060       21.0899923960
  H        18.4405863873       22.6955875289       17.1417244898
  H        17.0856016413       22.3460723740       17.9140035257
  H        21.5895984936       18.6493881994       20.8092981648
  H        21.9169963261       17.2592306596       20.1115201093
  H        19.7178373615       18.0834021457       22.3511286265
  H        20.9380891358       18.4144889098       23.3094431858
  H        15.0084102979       23.5936708153       18.9857668713
  H        16.4113869665       23.4007668655       19.7084321404
  H        23.4089178212       18.8909321532       19.2694150453
  H        24.8583713467       19.0404532106       19.0594427697
  H        19.1830202444       21.0815418521       18.6454587115
  H        19.0425189053       19.8829491141       19.5513561715
  H        20.1184029998       16.3303572852       20.1479254136
  H        20.3261545227       16.3168487188       18.7039980870
  H        18.5784921432       22.4399876269       22.9752646591
  H        17.7141181088       23.5633383792       23.8816297624
  H        23.3544718799       21.2577701818       18.9979889773
  H        23.9154943222       22.6377608267       19.2495444163
  H        19.9780606172       16.8322544270       16.2368983408
  H        20.3591551703       17.9295664832       17.3016135075
  H        16.4538715519       21.1667689595       21.8493907725
  H        15.9834616336       21.6958262644       20.4604193487
  H        17.9283301238       19.9660506632       17.0559609084
  O        17.5888201823       19.0708551800       17.3458703485
  O        21.3672100341       19.2820004241       17.4234193643
  O        18.6070749218       17.3128232748       21.3902127478
  O        17.7981422776       24.0162069386       20.4421440292
  O        17.4892686653       19.1498949467       20.0561008365
  O        20.7115096894       23.1967354452       18.5408220168
  O        19.9734086608       21.6917143347       22.0551692574
  O        17.9073384571       21.9259350596       17.4539106725
  O        22.3608345942       18.1394220043       20.4106296599
  O        20.2796102704       18.8599193343       22.7514364674
  O        15.7965372105       22.9226014506       19.1044742232
  O        24.0427023053       19.4680836492       18.7190713271
  O        19.7010267530       20.5455868702       19.2889593482
  O        20.8130438379       15.9972800713       19.5331527932
  O        17.7027933037       22.9496387557       23.0777647588
  O        23.0786656760       22.1731446793       19.2696547693
  O        19.7670695640       17.0815474445       17.1800034125
  O        15.8393278029       20.9489822195       21.1476216563
      54
 i =        6, time =        6.000, E =      -309.9698820763
  H        18.0848998301       18.3509380444       16.8448915490
  H        20.8481950078       19.8292014497       18.1154020229
  H        22.2521343732       19.1125155888       17.7257711959
  H        18.0210148839       16.6535483264       21.8286078234
  H        18.0373162571       18.0775638833       20.8692030201
  H        18.0592758441       23.6887597839       21.3423403731
  H        18.6385132217       23.8368430762       19.9020143367
  H        17.4398536395       18.9689643262       19.0382994428
  H        16.7637332223       19.8022330073       20.3321268478
  H        21.0969061146       23.8089256200       17.8429543233
  H        21.6215684298       22.7508036498       18.8134610662
  H        20.1578229918       20.8299377911       22.4092500838
  H        19.7711990267       21.5132072822       21.0722587469
  H        18.4655706467       22.6950742960       17.1756448742
  H        17.0930959804       22.3393871345       17.9175335714
  H        21.5844952154       18.6911403451       20.8029147682
  H        21.9164788218       17.2302440359       20.1238630404
  H        19.7220235336       18.0930536116       22.3575880410
  H        20.9175648810       18.3920885971       23.2937493668
  H        15.0384250910       23.5643840019       18.9736604750
  H        16.4319693467       23.4041303182       19.7044015757
  H        23.3993310764       18.9132725375       19.2491183868
  H        24.8594987201       19.0363902464       19.0706202893
  H        19.2120021524       21.0827811292       18.6529192291
  H        19.0407667302       19.8651142608       19.5607096297
  H        20.1347522648       16.3485314978       20.1663541903
  H        20.3337702578       16.3217899793       18.6847343776
  H        18.6132066888       22.4200276254       22.9559815225
  H        17.7242077968       23.5456186462       23.9017925297
  H        23.3581064103       21.2387983993       19.0100512829
  H        23.9341061924       22.6556117541       19.2428832034
  H        19.9849076958       16.8295333349       16.2360009393
  H        20.3361856892       17.9292254716       17.2769849796
  H        16.4473488147       21.1487350376       21.8531522427
  H        15.9769651091       21.6709522007       20.4731099454
  H        17.9117117301       19.9593914107       17.0554511475
  O        17.5859305946       19.0709662064       17.3407106735
  O        21.3688981144       19.2811395225       17.4238458443
  O        18.6098765270       17.3098873618       21.3834833014
  O        17.7947159244       24.0192109768       20.4397375104
  O        17.4864958505       19.1498036114       20.0601139077
  O        20.7106326454       23.1990409144       18.5395239102
  O        19.9769407382       21.6944156476       22.0551583288
  O        17.9085003176       21.9298950276       17.4509300747
  O        22.3631506785       18.1424160003       20.4102656136
  O        20.2812813250       18.8554513288       22.7540594142
  O        15.7888325009       22.9221487955       19.1026337012
  O        24.0448910577       19.4607627662       18.7212287318
  O        19.7014554035       20.5434650157       19.2844443051
  O        20.8127472915       15.9982465161       19.5354423604
  O        17.7097712451       22.9543772538       23.0757326325
  O        23.0694459923       22.1753987950       19.2761965044
  O        19.7715618577       17.0770190699       17.1880473763
  O        15.8353509198       20.9562020386       21.1458305746
      54
 i =        7, time =        7.000, E =      -309.9651686559
  H        18.0656765574       18.3680012630       16.8478813618
  H        20.8453031422       19.8043607809       18.1216546838
  H        22.2812732664       19.1230477945       17.7167588005
  H        18.0346248483       16.6572915873       21.8412154891
  H        18.0050579367       18.0862032341       20.8883600239
  H        18.0482485161       23.6806936881       21.3368680136
  H        18.6567313839       23.8434259983       19.9163077562
  H        17.4143108681       18.9668872595       19.0588734963
  H        16.7519923419       19.8056377477       20.3284204993
  H        21.1017868088       23.8144347652       17.8446439196
  H        21.6190127982       22.7413789076       18.8226436808
  H        20.1460811153       20.8139685434       22.3889690584
  H        19.7736874764       21.4888226015       21.0649857170
  H        18.4892525329       22.6919174492       17.2116543484
  H        17.1080650304       22.3288758687       17.9160567721
  H        21.5928996978       18.7222017329       20.7912335448
  H        21.9200834995       17.2152343523       20.1384011925
  H        19.7260502223       18.1099587198       22.3644328454
  H        20.9061314265       18.3657173848       23.2847596614
  H        15.0743080525       23.5286446194       18.9624944238
  H        16.4565438924       23.4112504683       19.7012345609
  H        23.3828038648       18.9351068833       19.2346203447
  H        24.8621348861       19.0360239527       19.0786809272
  H        19.2342926272       21.0937066064       18.6528681975
  H        19.0355279216       19.8466322374       19.5726296781
  H        20.1503754247       16.3638662271       20.1886024013
  H        20.3504597289       16.3210268134       18.6699067862
  H        18.6366846749       22.4102178250       22.9402675065
  H        17.7382784849       23.5161680158       23.9087098983
  H        23.3595711172       21.2253523432       19.0251724946
  H        23.9470942575       22.6723605129       19.2367796607
  H        19.9896161289       16.8267425666       16.2468753445
  H        20.3138816434       17.9264270510       17.2533784209
  H        16.4486438889       21.1364331202       21.8677715560
  H        15.9666160812       21.6471059353       20.4869536409
  H        17.8946473697       19.9516803672       17.0540516077
  O        17.5831182704       19.0706748997       17.3352178634
  O        21.3690646649       19.2804685281       17.4239112833
  O        18.6125132220       17.3071389855       21.3766721997
  O        17.7921961553       24.0219136034       20.4368825282
  O        17.4839104552       19.1495360422       20.0633810741
  O        20.7108699202       23.2015296542       18.5378063656
  O        19.9799619647       21.6980916744       22.0541414360
  O        17.9092570608       21.9341528731       17.4481833921
  O        22.3644246962       18.1451910613       20.4099248635
  O        20.2823758607       18.8510322232       22.7562361311
  O        15.7808350337       22.9219039927       19.1006389539
  O        24.0473208400       19.4532733649       18.7233378836
  O        19.7027432198       20.5410254188       19.2802032110
  O        20.8119570114       15.9999036998       19.5373555799
  O        17.7173024885       22.9590893776       23.0739377867
  O        23.0608971709       22.1771672070       19.2824279136
  O        19.7762333866       17.0728029471       17.1952053023
  O        15.8310550370       20.9629769328       21.1432384361
      54
 i =        8, time =        8.000, E =      -309.9623840482
  H        18.0495065739       18.3859075220       16.8522700230
  H        20.8496822697       19.7766529613       18.1267212148
  H        22.3137044015       19.1348615543       17.7107758285
  H        18.0487161548       16.6653987602       21.8500938019
  H        17.9797707880       18.0816680051       20.9141311503
  H        18.0318779511       23.6740143368       21.3349086321
  H        18.6624314478       23.8535918659       19.9362292364
  H        17.3870550525       18.9659071328       19.0833852473
  H        16.7405646667       19.8076039594       20.3271121417
  H        21.1001352834       23.8148648308       17.8534504180
  H        21.6017298509       22.7373509505       18.8304589796
  H        20.1376441787       20.7837151164       22.3748097658
  H        19.7810252420       21.4676107553       21.0701970925
  H        18.5119531043       22.6872093554       17.2493904527
  H        17.1261930056       22.3171665434       17.9119357312
  H        21.6154172510       18.7399717930       20.7736341111
  H        21.9277913200       17.2169891744       20.1551634825
  H        19.7262186061       18.1297429620       22.3686491383
  H        20.9055990223       18.3348796024       23.2838313124
  H        15.0957272477       23.5043183005       18.9486231157
  H        16.4795284129       23.4183628191       19.6945185069
  H        23.3578595257       18.9527609175       19.2289804061
  H        24.8652996106       19.0384814240       19.0843519155
  H        19.2475022667       21.1149454301       18.6437192397
  H        19.0310133809       19.8339936551       19.5835385916
  H        20.1661653971       16.3756153584       20.2106660701
  H        20.3754703406       16.3149223824       18.6625322397
  H        18.6449727982       22.4127178039       22.9284386958
  H        17.7561176722       23.4781187655       23.9057343793
  H        23.3578148762       21.2220347188       19.0441811604
  H        23.9454244328       22.6826375214       19.2315816035
  H        19.9919887123       16.8226138304       16.2679100646
  H        20.2949404853       17.9249753118       17.2327517984
  H        16.4534216900       21.1292316608       21.8875627921
  H        15.9553902333       21.6363974552       20.4918051877
  H        17.8790989768       19.9478027009       17.0501290397
  O        17.5799985071       19.0701179611       17.3298100085
  O        21.3684632354       19.2797798988       17.4237319345
  O        18.6147957715       17.3047847026       21.3697907323
  O        17.7907709140       24.0242851261       20.4334887434
  O        17.4813518547       19.1492810375       20.0661912149
  O        20.7122570151       23.2041880236       18.5356963192
  O        19.9824771344       21.7023083486       22.0519701240
  O        17.9098635028       21.9384887000       17.4455155901
  O        22.3645888654       18.1477540273       20.4096207761
  O        20.2830139861       18.8469686978       22.7580568356
  O        15.7741600654       22.9209785333       19.0990136851
  O        24.0501636159       19.4459074898       18.7251512782
  O        19.7047529037       20.5378286326       19.2765894821
  O        20.8106705086       16.0022810034       19.5389672417
  O        17.7256661354       22.9633922354       23.0721385517
  O        23.0536850809       22.1785066633       19.2882567844
  O        19.7809521562       17.0686868785       17.2014726178
  O        15.8265476135       20.9686142661       21.1408381178
      54
 i =        9, time =        9.000, E =      -309.9682007373
  H        18.0418072724       18.3964364929       16.8519764461
  H        20.8592465217       19.7487903992       18.1333737152
  H        22.3378211138       19.1496023567       17.7039817175
  H        18.0619767190       16.6754164168       21.8568235431
  H        17.9635056073       18.0636264857       20.9451472887
  H        18.0098681459       23.6689895496       21.3365295585
  H        18.6573141796       23.8669054650       19.9598630139
  H        17.3586461336       18.9642807646       19.1061500992
  H        16.7311569272       19.8072404940       20.3283427834
  H        21.0938304144       23.8123106887       17.8667931245
  H        21.5720563477       22.7381315925       18.8368848819
  H        20.1309095311       20.7507081222       22.3645593599
  H        19.7924465097       21.4514913320       21.0856341274
  H        18.5341270590       22.6820473908       17.2884774023
  H        17.1411651860       22.3076248842       17.9088916905
  H        21.6480284657       18.7458938060       20.7518418896
  H        21.9384988758       17.2347305059       20.1732462298
  H        19.7187860081       18.1475086176       22.3673084510
  H        20.9120364401       18.3030340729       23.2875447285