      48
 i =        1, time =        1.000, E =      -275.5071518990
  H        16.3909392983       20.5129954429       17.8737954774
  H        19.6215616052       20.9467021281       17.7271159995
  H        20.3755365955       21.5665145061       16.6896765806
  H        20.0572290151       16.6958365913       19.9375776550
  H        19.0246940730       17.3497694234       18.9640638511
  H        19.2506644217       23.2779660802       23.1688570888
  H        19.5643732566       23.1224467116       21.6442482637
  H        16.8691538794       18.3776626350       18.4957152440
  H        16.4776923249       16.8432871847       18.4161270568
  H        21.1813768697       22.8460790456       19.7659531428
  H        21.4741641921       22.1764337707       21.1688910531
  H        17.2281101602       19.7484697189       22.0357201791
  H        16.8217985276       19.0169005124       20.6891772591
  H        18.0193600900       20.8752245894       16.0628834282
  H        16.7386169221       20.6353967676       15.1744720012
  H        23.5982087646       19.2728554510       18.3517062722
  H        22.1840690027       19.6282963249       17.5784866280
  H        20.1128138375       18.3280783768       20.5710659028
  H        18.9165404175       18.8732728702       21.5432078515
  H        16.4484725190       21.3842142198       23.6634944756
  H        17.9211922705       21.7804576652       22.9484434463
  H        22.5425461954       21.5949159629       18.0420137486
  H        22.6422276773       23.2522796862       17.7447693777
  H        19.2413314173       21.9927295940       19.7288789818
  H        19.4227806613       20.5791314893       20.1709528839
  H        20.4965218896       17.8570029196       17.4259312578
  H        20.3729154164       19.0616488784       16.5233424981
  H        20.0990461912       21.1667991939       23.7148089609
  H        21.1308718954       21.7014606147       24.8450483853
  H        22.7698550704       20.2070545030       22.2281389286
  H        21.3216395072       19.8936242651       21.9103293317
  H        17.4323054829       20.5733417327       19.0936807495
  O        16.6178458990       20.1037371190       18.7631833999
  O        19.7239138218       20.8249699475       16.7558948528
  O        20.0144658775       17.3295070232       19.2013910575
  O        18.8319192142       22.9958236449       22.3178014704
  O        17.2087160200       17.4257087566       18.5646448517
  O        20.9421612480       22.9279965898       20.7218107100
  O        17.2131044315       18.8679506377       21.5531545345
  O        17.0310276570       20.7791418426       16.0947211475
  O        23.0110343751       20.0618268653       18.0201390030
  O        19.8672702753       19.0142554613       21.2594658054
  O        17.1997811618       20.9886760787       23.1662351656
  O        22.0398641565       22.4859144884       17.9282547482
  O        19.1518224687       21.1263370768       19.3244816396
  O        21.0036127909       18.2988833368       16.7445691081
  O        20.2272305900       21.8608663113       24.4609813877
  O        21.9044289699       20.6416515168       22.2172200532
      48
 i =        2, time =        2.000, E =      -275.5097020163
  H        16.3739009661       20.5051151410       17.8728313383
  H        19.6229448993       20.9298923262       17.7503999371
  H        20.3916021981       21.5660570679       16.6787644858
  H        20.0771334610       16.6635066805       19.9628512094
  H        19.0414272464       17.3829213347       18.9849796410
  H        19.2531205386       23.2764576585       23.1701570112
  H        19.5395670060       23.1135411365       21.6167398499
  H        16.8585510417       18.3559598910       18.4940932630
  H        16.4851479777       16.8288406505       18.4048146520
  H        21.2162580072       22.8382463519       19.7881361178
  H        21.4706740215       22.1824025378       21.1876576398
  H        17.2252169623       19.7381757893       22.0306800727
  H        16.8086696159       19.0319247019       20.6975490945
  H        18.0294297677       20.8553857589       16.0672284136
  H        16.7367394760       20.6375295714       15.1666860922
  H        23.5945760641       19.2843546619       18.3536128409
  H        22.1842294848       19.6393175174       17.5618815845
  H        20.1066780145       18.3229060116       20.5944317036
  H        18.8946477870       18.8794147982       21.5616234561
  H        16.4768189119       21.3956245576       23.6866158794
  H        17.9018709705       21.7611052687       22.9552520058
  H        22.5627256858       21.6161077992       18.0006633947
  H        22.6547129123       23.2536561788       17.7838094848
  H        19.2422737304       21.9945256723       19.7219769905
  H        19.4324494895       20.5448836840       20.1645565079
  H        20.4824692327       17.8683720706       17.4277809804
  H        20.3707510032       19.0423849105       16.5175441954
  H        20.0962421396       21.1504112340       23.7283775560
  H        21.1040486595       21.6740827720       24.8667315679
  H        22.7662048287       20.2092551668       22.2048343346
  H        21.3191451661       19.8870515768       21.8892792112
  H        17.4375043525       20.6089235923       19.0793689811
  O        16.6160031318       20.1062238883       18.7712292781
  O        19.7169094718       20.8264355492       16.7512078001
  O        20.0136501431       17.3216798719       19.2004515840
  O        18.8298478769       23.0000793141       22.3219702475
  O        17.2063596102       17.4243000186       18.5626858036
  O        20.9418467518       22.9286565079       20.7261728770
  O        17.2141596056       18.8737458081       21.5535710285
  O        17.0352072042       20.7749668741       16.0974856899
  O        23.0190476272       20.0638084922       18.0160134192
  O        19.8681713023       19.0163420182       21.2584888087
  O        17.1993802317       20.9893149808       23.1614355380
  O        22.0423587337       22.4856719502       17.9290493131
  O        19.1512156661       21.1242845945       19.3178049785
  O        21.0029811502       18.3024282954       16.7397576878
  O        20.2237185690       21.8601426022       24.4660297421
  O        21.9068398301       20.6418319742       22.2163161423
      48
 i =        3, time =        3.000, E =      -275.5141850217
  H        16.3628737003       20.4935055116       17.8789944786
  H        19.6193683621       20.9083622999       17.7734810026
  H        20.4049065582       21.5605628998       16.6628967621
  H        20.0938742552       16.6360764335       19.9748290340
  H        19.0543034395       17.4128967234       19.0073708975
  H        19.2575010365       23.2734970176       23.1685996051
  H        19.5144658395       23.1032105229       21.5935439346
  H        16.8474706549       18.3369743271       18.4929525169
  H        16.4822470727       16.8064636780       18.3912261102
  H        21.2537269116       22.8308327416       19.8049568590
  H        21.4606939586       22.1950546263       21.2032677571
  H        17.2162498479       19.7334543647       22.0304281951
  H        16.7911265127       19.0496237002       20.6966727266
  H        18.0382327178       20.8351033173       16.0726756101
  H        16.7373850059       20.6405346399       15.1640137444
  H        23.5776297453       19.3106188098       18.3476489161
  H        22.1983298278       19.6486879364       17.5517909523
  H        20.0960949899       18.3196393021       20.6141006650
  H        18.8759132985       18.8829055994       21.5740096792
  H        16.5080678226       21.4065477986       23.7076144529
  H        17.8680630962       21.7306689522       22.9627978202
  H        22.5851598502       21.6438126902       17.9596087009
  H        22.6648572269       23.2459308918       17.8230557096
  H        19.2450009758       22.0073402023       19.7168395685
  H        19.4388121469       20.5139991457       20.1406079675
  H        20.4682727562       17.8723083457       17.4377693253
  H        20.3726188827       19.0236576241       16.5100585722
  H        20.0996384786       21.1476030535       23.7576290990
  H        21.0739476967       21.6452035467       24.8843232288
  H        22.7713603618       20.2105127549       22.1821051991
  H        21.3135773401       19.8853833282       21.8695453886
  H        17.4377519855       20.6414263852       19.0596127215
  O        16.6141191040       20.1089288589       18.7790735198
  O        19.7105172696       20.8286192823       16.7467938806
  O        20.0129193612       17.3133383263       19.2000468621
  O        18.8275498123       23.0044430413       22.3262949320
  O        17.2049508115       17.4233344289       18.5608763820
  O        20.9419191445       22.9289207291       20.7309826522
  O        17.2158229530       18.8791388432       21.5545605183
  O        17.0392707618       20.7706728850       16.0999682337
  O        23.0269012350       20.0646368413       18.0118641609
  O        19.8691255111       19.0189937757       21.2579904242
  O        17.1998702897       20.9908557555       23.1564556526
  O        22.0447594580       22.4857332458       17.9300525218
  O        19.1508072725       21.1210355358       19.3124037474
  O        21.0024103054       18.3066846952       16.7346266585
  O        20.2199691262       21.8587158794       24.4703574482
  O        21.9088047550       20.6418482540       22.2152310746
      48
 i =        4, time =        4.000, E =      -275.5145789841
  H        16.3571664303       20.4783599246       17.8914984016
  H        19.6124903860       20.8835363441       17.7882316934
  H        20.4119987578       21.5475854072       16.6440433170
  H        20.1056607176       16.6191952951       19.9675755044
  H        19.0576660014       17.4389106831       19.0306496506
  H        19.2652915673       23.2696599196       23.1646679302
  H        19.4889089464       23.0923574541       21.5773876780
  H        16.8340821468       18.3252321920       18.4918444632
  H        16.4758631933       16.7819006339       18.3767880736
  H        21.2930152209       22.8240936989       19.8163399782
  H        21.4456430261       22.2120101504       21.2176142163
  H        17.2015077797       19.7373963617       22.0370458082
  H        16.7719578493       19.0687314149       20.6912231229
  H        18.0447946364       20.8146548914       16.0791418021
  H        16.7413984476       20.6446373509       15.1684543740
  H        23.5547110571       19.3418473655       18.3377780972
  H        22.2250754283       19.6560061306       17.5479002460
  H        20.0827811206       18.3145085911       20.6269834416
  H        18.8653337026       18.8847901337       21.5783211244
  H        16.5400996985       21.4167142555       23.7276091859
  H        17.8295234052       21.6981985675       22.9683576905
  H        22.6105739810       21.6727791388       17.9200264947
  H        22.6732714856       23.2326136154       17.8615607571
  H        19.2497006206       22.0236681251       19.7114499652
  H        19.4415241793       20.4888152772       20.1000018730
  H        20.4589186121       17.8722295056       17.4499528735
  H        20.3739903831       19.0113833157       16.4986594470
  H        20.1073224290       21.1548043649       23.7974752193
  H        21.0456971154       21.6146059898       24.9010287878
  H        22.7840239035       20.2113393633       22.1598293371
  H        21.3073088651       19.8914275281       21.8528097470
  H        17.4308810041       20.6682951775       19.0346249448
  O        16.6123410968       20.1119771860       18.7867596222
  O        19.7048926751       20.8315587692       16.7430657399
  O        20.0127481724       17.3042201717       19.2005656362
  O        18.8249628232       23.0088671725       22.3305629209
  O        17.2041673015       17.4221629970       18.5591326665
  O        20.9423054736       22.9289207985       20.7360925509
  O        17.2179360052       18.8839797467       21.5557026804
  O        17.0432131169       20.7661959585       16.1020549863
  O        23.0342344403       20.0649523151       18.0074716965
  O        19.8696894315       19.0223804012       21.2582512288
  O        17.2007675523       20.9927654420       23.1514638293
  O        22.0469782693       22.4862304675       17.9312626789
  O        19.1506233036       21.1169128991       19.3083318436
  O        21.0018719020       18.3110502153       16.7296897540
  O        20.2157753884       21.8568265325       24.4740590503
  O        21.9102668807       20.6414902507       22.2138930211
      48
 i =        5, time =        5.000, E =      -275.5101907526
  H        16.3548994585       20.4608649530       17.9066877960
  H        19.6037553362       20.8574243992       17.7899625975
  H        20.4120016082       21.5273414812       16.6238832213
  H        20.1117346121       16.6133423569       19.9413128212
  H        19.0503666401       17.4603827679       19.0548074090
  H        19.2778302336       23.2655144766       23.1593301392
  H        19.4635310514       23.0818743923       21.5695407897
  H        16.8175974091       18.3222853066       18.4905883205
  H        16.4735420619       16.7618576359       18.3633435553
  H        21.3323618217       22.8184533426       19.8252392552
  H        21.4283184906       22.2290350501       21.2337494750
  H        17.1815227212       19.7487273372       22.0501763123
  H        16.7549963063       19.0875301825       20.6877296722
  H        18.0487648228       20.7943927708       16.0864772762
  H        16.7484684923       20.6495787862       15.1786924315
  H        23.5377157336       19.3625255254       18.3311861384
  H        22.2595008907       19.6599001056       17.5477832562
  H        20.0680417407       18.3057283615       20.6319495500
  H        18.8650965933       18.8861205724       21.5738795087
  H        16.5706966297       21.4256921055       23.7478406580
  H        17.8017122487       21.6787966667       22.9673679954
  H        22.6391329497       21.6982514033       17.8825901367
  H        22.6817541965       23.2190832477       17.8985646005
  H        19.2565158973       22.0350983737       19.7036400494
  H        19.4412778194       20.4696670075       20.0470886543
  H        20.4585757431       17.8716004868       17.4586933373
  H        20.3713569408       19.0094543671       16.4820573490
  H        20.1161266347       21.1629756188       23.8374003446
  H        21.0231135608       21.5825175622       24.9199871049
  H        22.7992454490       20.2136509063       22.1380376980
  H        21.3017571577       19.9059636820       21.8399894675
  H        17.4171986603       20.6884088506       19.0059412235
  O        16.6107282130       20.1153394033       18.7944162904
  O        19.7000070661       20.8350985070       16.7402172107
  O        20.0132652480       17.2943848832       19.2019850874
  O        18.8219732470       23.0133034922       22.3346187483
  O        17.2035874859       17.4202632793       18.5573329513
  O        20.9429143920       22.9288922972       20.7410830643
  O        17.2202392517       18.8884027331       21.5566031605
  O        17.0470550872       20.7615113292       16.1038415404
  O        23.0406318343       20.0658371486       18.0025261180
  O        19.8696404610       19.0265402388       21.2593628636
  O        17.2012308065       20.9941352742       23.1467389002
  O        22.0488850084       22.4871430443       17.9326989696
  O        19.1506302322       21.1124319612       19.3054252537
  O        21.0013249312       18.3150301490       16.7253820147
  O        20.2111010926       21.8550263938       24.4775780613
  O        21.9114553621       20.6405850085       22.2122731244
      48
 i =        6, time =        6.000, E =      -275.5108152282
  H        16.3533775754       20.4426763991       17.9190931013
  H        19.5943649786       20.8322040629       17.7775474439
  H        20.4070236921       21.5027746898       16.6035459480
  H        20.1125728273       16.6136389966       19.9021532744
  H        19.0364720263       17.4762793679       19.0801753207
  H        19.2958957140       23.2613763851       23.1533508799
  H        19.4399646812       23.0724584343       21.5691236041
  H        16.7990756703       18.3256192359       18.4894486212
  H        16.4798787774       16.7506023174       18.3522129329
  H        21.3694504827       22.8142856326       19.8357448605
  H        21.4118815230       22.2414980449       21.2549394096
  H        17.1572542457       19.7624324538       22.0673368100
  H        16.7433353497       19.1044787223       20.6912055282
  H        18.0504491068       20.7747072555       16.0944722077
  H        16.7572458525       20.6547602389       15.1904889883
  H        23.5368120263       19.3596932364       18.3345524521
  H        22.2934034105       19.6578182326       17.5469859111
  H        20.0525058494       18.2946585824       20.6305338289
  H        18.8748676465       18.8879145215       21.5613981078
  H        16.5983316507       21.4328134244       23.7691355274
  H        17.7982492113       21.6860048499       22.9553246480
  H        22.6694496613       21.7177793780       17.8476654166
  H        22.6919998927       23.2105291247       17.9338423035
  H        19.2657683895       22.0356712064       19.6924841028
  H        19.4399988704       20.4542044659       19.9894302126
  H        20.4689631611       17.8726927355       17.4607296947
  H        20.3646287795       19.0173248972       16.4607975123
  H        20.1225377212       21.1599181915       23.8644537338
  H        21.0065188810       21.5501905226       24.9427385705
  H        22.8113231011       20.2194188730       22.1169293010
  H        21.2971168260       19.9276681289       21.8310086715
  H        17.3994424710       20.7023510103       18.9760545959
  O        16.6092391482       20.1188563230       18.8022137377
  O        19.6956400668       20.8389135958       16.7382382637
  O        20.0141961721       17.2842429721       19.2039070080
  O        18.8184288439       23.0177485030       22.3384567285
  O        17.2028710017       17.4175260112       18.5553653716
  O        20.9436703398       22.9290952155       20.7454536994
  O        17.2224687275       18.8927521617       21.5570867032
  O        17.0508316415       20.7566347926       16.1056064304
  O        23.0459936717       20.0683021493       17.9968571206
  O        19.8689797949       19.0313108991       21.2611857351
  O        17.2004905956       20.9941596911       23.1425690459
  O        22.0504498545       22.4883117509       17.9343684135
  O        19.1507027622       21.1081324191       19.3032313533
  O        21.0006642970       18.3184782101       16.7218714599
  O        20.2061570144       21.8539989760       24.4816152783
  O        21.9127211974       20.6390891361       22.2103934188
      48
 i =        7, time =        7.000, E =      -275.5149099296
  H        16.3499669460       20.4250400211       17.9237572573
  H        19.5852496184       20.8098410513       17.7533465686
  H        20.4017459906       21.4788567343       16.5835162814
  H        20.1098982758       16.6095431559       19.8617303318
  H        19.0224634565       17.4851921915       19.1067585574
  H        19.3193298219       23.2571488185       23.1467537029
  H        19.4205895721       23.0644739322       21.5731025803
  H        16.7810299521       18.3301674259       18.4890342129
  H        16.4954477262       16.7487253047       18.3437468797
  H        21.4021827216       22.8116994754       19.8511012687
  H        21.3982391021       22.2467207254       21.2829584614
  H        17.1301378809       19.7725655712       22.0854551164
  H        16.7383283907       19.1186008504       20.7035271749
  H        18.0507196530       20.7559705539       16.1028731512
  H        16.7659182196       20.6595217014       15.1983348045
  H        23.5510213682       19.3359408945       18.3474685429
  H        22.3181083941       19.6466728793       17.5405114697
  H        20.0365149523       18.2849165516       20.6259889635
  H        18.8917343603       18.8910085554       21.5429043808
  H        16.6227166019       21.4372953900       23.7914590177
  H        17.8176042778       21.7172302990       22.9319568348
  H        22.6983752097       21.7317870524       17.8156680868
  H        22.7039743619       23.2095450792       17.9676105915
  H        19.2780426971       22.0233828966       19.6787305598
  H        19.4408133920       20.4372070827       19.9367332638
  H        20.4889919840       17.8761387575       17.4558763817
  H        20.3570786201       19.0303619759       16.4372730220
  H        20.1244510552       21.1389036160       23.8716877751
  H        20.9928149550       21.5198958583       24.9686020010
  H        22.8163759072       20.2295588241       22.0966752926
  H        21.2923336302       19.9534352238       21.8247630286
  H        17.3822342547       20.7123428444       18.9477938508
  O        16.6077218600       20.1223069345       18.8102605719
  O        19.6914208820       20.8425731494       16.7369304850
  O        20.0150363291       17.2745577985       19.2056138734
  O        18.8141816142       23.0222336065       22.3422563587
  O        17.2018491716       17.4142394356       18.5531618393
  O        20.9445644361       22.9296791542       20.7488662067
  O        17.2244243553       18.8973909331       21.5572044895
  O        17.0545625281       20.7516069075       16.1077046514
  O        23.0509525410       20.0724153783       17.9907526976
  O        19.8679079073       19.0363926485       21.2634098828
  O        17.1986518266       20.9930477001       23.1390048083
  O        22.0518604854       22.4895549664       17.9362439737
  O        19.1506164260       21.1044920885       19.3010652240
  O        20.9997450765       18.3216126696       16.7190197500
  O        20.2012839821       21.8540199094       24.4866462050
  O        21.9143769584       20.6371401669       22.2083367334
      48
 i =        8, time =        8.000, E =      -275.5132865398
  H        16.3432246072       20.4079739099       17.9191286758
  H        19.5769691201       20.7917954009       17.7233921921
  H        20.4014918287       21.4606513307       16.5638850619
  H        20.1059841385       16.5880814727       19.8330818061
  H        19.0138205062       17.4859458073       19.1338707814
  H        19.3469099719       23.2523324544       23.1388040844
  H        19.4077058106       23.0578905753       21.5773509181
  H        16.7662350876       18.3309677013       18.4900288450
  H        16.5168527606       16.7530028220       18.3371496022
  H        21.4293827231       22.8104558676       19.8725529404
  H        21.3869749010       22.2456730585       21.3166431480
  H        17.1018736032       19.7746873370       22.1022345368
  H        16.7392206734       19.1297189312       20.7229546206
  H        18.0508002845       20.7384885000       16.1113988165
  H        16.7732116204       20.6634830907       15.1983595366
  H        23.5702746684       19.3067740412       18.3630039695
  H        22.3297882442       19.6251953089       17.5260262148
  H        20.0206788244       18.2802773547       20.6215604451
  H        18.9099752615       18.8958832456       21.5215341838
  H        16.6447283100       21.4383839272       23.8138494314
  H        17.8458360258       21.7564406930       22.9012828341
  H        22.7219772029       21.7425073073       17.7872882196
  H        22.7152987376       23.2151626975       18.0001324164
  H        19.2942843744       22.0007825392       19.6647802648
  H        19.4468812620       20.4129930630       19.8973747575
  H        20.5150327380       17.8807899805       17.4471230893
  H        20.3529107033       19.0426496538       16.4147372504
  H        20.1220388554       21.1059860725       23.8641965099
  H        20.9776187515       21.4941748805       24.9954379978
  H        22.8136738894       20.2434853779       22.0771735806
  H        21.2854580882       19.9791579260       21.8193910751
  H        17.3706361039       20.7214032783       18.9235707451
  O        16.6059392208       20.1255144611       18.8184812113
  O        19.6869653026       20.8456757666       16.7358835899
  O        20.0153040597       17.2662200630       19.2063397695
  O        18.8091497273       23.0268183997       22.3463164277
  O        17.2005900888       17.4109288234       18.5507283846
  O        20.9456798215       22.9305831695       20.7513135131
  O        17.2260212292       18.9025448170       21.5571800808
  O        17.0582075143       20.7464719679       16.1103808967
  O        23.0563999083       20.0773055909       17.9847420990
  O        19.8667928375       19.0414951506       21.2656659638
  O        17.1965305466       20.9918524875       23.1358574446
  O        22.0535013694       22.4907974208       17.9382743826
  O        19.1501139366       21.1017331527       19.2982289411
  O        20.9985196118       18.3248561349       16.7164408258
  O        20.1967558536       21.8545461835       24.4925050571
  O        21.9165905821       20.6350348052       22.2062431026
      48
 i =        9, time =        9.000, E =      -275.5071741612
  H        16.3334839556       20.3903040053       17.9081917630
  H        19.5696324001       20.7788238608       17.6970277516
  H        20.4089377317       21.4505342294       16.5451022067
  H        20.1019873858       16.5440189872       19.8206319154
  H        19.0131592274       17.4781247606       19.1602813854
  H        19.3765924309       23.2462036148       23.1285124471
  H        19.4022262011       23.0523401938       21.5786387167
  H        16.7566538544       18.3250425762       18.4929409224
  H        16.5375729204       16.7571020141       18.3305450857
  H        21.4511850530       22.8099908251       19.8989528991
  H        21.3759835242       22.2422341894       21.3521885552
  H        17.0741442896       19.7668357678       22.1167308431
  H        16.7432107729       19.1385741325       20.7443114245
  H        18.0519184366       20.7224908902       16.1197607480
  H        16.7792323624       20.6667272944       15.1908774698
  H        23.5850725761       19.2869659266       18.3741689009
  H        22.3321933531       19.5960608586       17.5058336962
  H        20.0061087554       18.2829948545       20.6192648845
  H        18.9217416614       18.9026524047       21.5009452852
  H        16.6657689690       21.4355202661       23.8348745503
  H        17.8699916689       21.7891856652       22.8679088144
  H        22.7369306640       21.7523709506       17.7633247208
  H        22.7223527477       23.2240880215       18.0313270849
  H        19.3159734041       21.9747924085       19.6543996730
  H        19.4591315706       20.3805640861       19.8737406775
  H        20.5418106722       17.8840103649       17.4399549527
  H        20.3549328775       19.0496315578       16.3961276757
  H        20.1166449207       21.0742649893       23.8532899342
  H        20.9575283569       21.4749308832       25.0210400398
  H        22.8059186857       20.2591721000       22.0578331760
  H        21.2746210491       20.0011056565       21.8129977228
  H        17.3678293638       20.7316356808       18.9047443674
  O        16.6036809567       20.1284419063       18.8265941645
  O        19.6820864451       20.8480347916       16.7344563203
  O        20.0147611918       17.2595968104       19.2058848607
  O        18.8033860611       23.0315752484       22.3508971886
  O        17.1994040011       17.4081890907       18.5481538631
  O        20.9471268494       22.9315813096       20.7531231254
  O        17.2273195253       18.9082435712       21.5573632007
  O        17.0616442305       20.7412608103       16.1136074263
  O        23.0626836620       20.0818755352       17.9790868398
  O        19.8660994920       19.0464460841       21.2676274954
  O        17.1948564715       20.9915254657       23.1329146468
  O        22.0557967142       22.4920936789       17.9404120348
  O        19.1490403651       21.0995074294       19.2943184583
  O        20.9971318351       18.3286509576       16.7136095740
  O        20.1927016916       21.8546314839       24.4986760390
  O        21.9193053106       20.6331387989       22.2042786136
      48
 i =       10, time =       10.000, E =      -275.5018446816
  H        16.3224141837       20.3705843162       17.8966635661
  H        19.5631045770       20.7710980793       17.6840344754
  H        20.4220612775       21.4468298945       16.5286475322
  H        20.0972644633       16.4862536209       19.8160577446
  H        19.0198159162       17.4622893560       19.1845890040
  H        19.4059910149       23.2380736591       23.1152819610
  H        19.4026956318       23.0473375217       21.5763408249
  H        16.7528117248       18.3121631558       18.4979510075
  H        16.5506792376       16.7541758826       18.3216995960
  H        21.4691845099       22.8094844694       19.9269688431
  H        21.3630836986       22.2408158767       21.3849377533
  H        17.0483408349       19.7495236392       22.1293726999
  H        16.7462619726       19.1466219675       20.7603856501
  H        18.0548801436       20.7081646555       16.1276991538
  H        16.7853536036       20.6696523221       15.1801844525
  H        23.5905675756       19.2846123159       18.3770924270
  H        22.3330736407       19.5647921039       17.4849342463
  H        19.9942800250       18.2931543101       20.6195114514