      33
 i =        1, time =        1.000, E =      -189.4124883891
  H        19.7557493749       18.3009623718       18.0716209503
  H        22.3986262314       22.2511425629       17.9837781463
  H        22.1600494726       21.1233439232       19.1744490951
  H        21.3347369462       19.0129119209       23.2366156109
  H        20.5591917785       18.5760386900       21.9467224640
  H        16.7494357157       22.7563262540       19.5152167513
  H        18.3226041258       22.3634513087       19.7546914194
  H        19.6188105437       18.0526224448       20.4195102013
  H        19.2978071746       17.1214116202       21.7071853776
  H        19.8862494089       22.3509922885       20.7709824097
  H        20.3163372280       22.4780873184       19.2788156271
  H        18.1877987325       20.8480640906       22.3959439380
  H        17.2257589276       20.8926945480       21.1059439456
  H        18.2618529639       20.8111532202       16.7150717671
  H        17.7119851783       21.0774999185       18.2563722100
  H        23.2838901854       20.9543146367       20.8589604162
  H        22.3447753599       19.7070938350       21.1037831668
  H        20.6442791921       20.7023549131       22.5479562317
  H        20.1367230774       22.1036780764       23.2759945774
  H        17.3658648231       18.5402983119       22.0290010366
  H        16.6844268324       17.2827681359       21.4142650726
  H        18.7058769801       19.3328335021       18.3393231823
  O        19.2403066366       18.6427331681       18.8508516500
  O        21.7283923030       21.8352337007       18.5605120832
  O        21.2541942600       19.3154763626       22.3282947740
  O        17.3087896432       21.9747240663       19.5744231113
  O        20.0165706624       17.5897277127       21.2538471604
  O        19.6528184306       22.8618962713       19.9569568838
  O        17.3525875793       20.4883969939       22.0333540232
  O        17.8248144923       20.3838624765       17.5351011656
  O        22.8400275867       20.2331768141       20.3303682394
  O        19.8989325873       21.4095684755       22.6437383751
  O        17.3052948832       17.5250213281       22.1242081965
      33
 i =        2, time =        2.000, E =      -189.4069187905
  H        19.7620899340       18.2830430158       18.0688066815
  H        22.4397784402       22.2673355490       17.9683294398
  H        22.1344787724       21.1132636735       19.1695236023
  H        21.3106802037       19.0278724953       23.2360594877
  H        20.5544964061       18.6091862989       21.9494795512
  H        16.7428682120       22.7606323844       19.5134823505
  H        18.2776082776       22.3616936628       19.7528188145
  H        19.6226634314       18.0487372978       20.3951514914
  H        19.2674217083       17.0997524208       21.7020833169
  H        19.8759253129       22.3454644250       20.7682164217
  H        20.3210107255       22.4725695196       19.2804277946
  H        18.1582047898       20.8211469283       22.3898556673
  H        17.2248200814       20.8830149356       21.1027845490
  H        18.2624512471       20.8115459621       16.6999348736
  H        17.7141030591       21.1141879650       18.2569865435
  H        23.2494889389       20.9378943260       20.8425295161
  H        22.3648395374       19.7121232175       21.0910286057
  H        20.6474664676       20.7039107397       22.5499065626
  H        20.1617320565       22.0908847002       23.3020080189
  H        17.3728613184       18.5793888385       22.0494614329
  H        16.6834226521       17.2852547965       21.4161853410
  H        18.6682177169       19.3367530492       18.3104474000
  O        19.2367362151       18.6391268879       18.8489785480
  O        21.7328043674       21.8348540835       18.5580308153
  O        21.2619918578       19.3149855348       22.3338631147
  O        17.3107707131       21.9750181089       19.5800469904
  O        20.0177681331       17.5893517199       21.2503640621
  O        19.6501762347       22.8657740717       19.9610228038
  O        17.3537182741       20.4843709793       22.0326127159
  O        17.8240561298       20.3858783259       17.5311467073
  O        22.8438861550       20.2308835804       20.3351393890
  O        19.8938722614       21.4149994154       22.6362854799
  O        17.3055917147       17.5226479584       22.1294801725
      33
 i =        3, time =        3.000, E =      -189.3995461163
  H        19.7645926243       18.2666126968       18.0778567794
  H        22.4701141550       22.2738089974       17.9652976621
  H        22.1097651752       21.1077972040       19.1595254257
  H        21.2917397068       19.0382965299       23.2507532890
  H        20.5513602207       18.6391779272       21.9469335412
  H        16.7340091427       22.7664699786       19.5113306204
  H        18.2298648771       22.3607933084       19.7501234420
  H        19.6289900924       18.0369768557       20.3787226799
  H        19.2363624942       17.0847379842       21.6917630602
  H        19.8658657519       22.3402310356       20.7703285562
  H        20.3225531205       22.4723730615       19.2873921499
  H        18.1495214458       20.8042354714       22.3895437212
  H        17.2274842825       20.8712447814       21.1112960328
  H        18.2541926273       20.8049876821       16.7040810509
  H        17.7135412495       21.1477349419       18.2508364959
  H        23.2206032124       20.9285928801       20.8303778594
  H        22.3879454304       19.7215073278       21.0696458645
  H        20.6429635878       20.7080564190       22.5527965453
  H        20.1863486496       22.0745072054       23.3250894118
  H        17.3766941442       18.6011499830       22.0716918957
  H        16.6818782756       17.2884399616       21.4173136886
  H        18.6328779763       19.3361654018       18.2889728850
  O        19.2333985294       18.6355447248       18.8461472727
  O        21.7377600437       21.8347504796       18.5549631891
  O        21.2700682082       19.3150724522       22.3390151807
  O        17.3130771300       21.9751339068       19.5856261937
  O        20.0183053328       17.5889340608       21.2462916123
  O        19.6478703047       22.8692776279       19.9647106663
  O        17.3532043661       20.4795230544       22.0307398428
  O        17.8238244067       20.3886146242       17.5263036780
  O        22.8473026893       20.2278844114       20.3402575858
  O        19.8891059324       21.4207416784       22.6287553428
  O        17.3062533202       17.5213903388       22.1346769412
      33
 i =        4, time =        4.000, E =      -189.4007394329
  H        19.7629607599       18.2523435711       18.0977895022
  H        22.4848515677       22.2672933741       17.9786430059
  H        22.0882791364       21.1050906454       19.1457223024
  H        21.2770257967       19.0446782420       23.2777358593
  H        20.5495400221       18.6645802010       21.9394907478
  H        16.7256073432       22.7693181846       19.5091320509
  H        18.1910807572       22.3646151362       19.7489697600
  H        19.6379325332       18.0173857540       20.3711003684
  H        19.2120307814       17.0814770504       21.6725747404
  H        19.8558530111       22.3359142518       20.7767231021
  H        20.3200189202       22.4782898842       19.3003032675
  H        18.1672547501       20.7996594909       22.3975611554
  H        17.2333858021       20.8586880346       21.1279470327
  H        18.2394802526       20.7929270812       16.7231409151
  H        17.7109023009       21.1727721994       18.2351069697
  H        23.2035395751       20.9385512300       20.8301134615
  H        22.4090567923       19.7290061675       21.0470678145
  H        20.6304742791       20.7142245732       22.5554494247
  H        20.2076781310       22.0516295440       23.3408954229
  H        17.3767101185       18.6006847561       22.0947800551
  H        16.6807918875       17.2932505779       21.4186605694
  H        18.6044619296       19.3272673741       18.2774304618
  O        19.2300409666       18.6322300161       18.8422236556
  O        21.7434469193       21.8352655002       18.5509298910
  O        21.2784403190       19.3157666777       22.3439288257
  O        17.3147612652       21.9751079415       19.5910186878
  O        20.0177147707       17.5882109159       21.2417959984
  O        19.6459972339       22.8723560124       19.9680367326
  O        17.3507038902       20.4736099918       22.0278268555
  O        17.8239307611       20.3922691465       17.5210681167
  O        22.8502087685       20.2237904964       20.3447678699
  O        19.8848441397       21.4269894777       22.6214723862
  O        17.3072592035       17.5214837352       22.1397395067
      33
 i =        5, time =        5.000, E =      -189.4069807569
  H        19.7593829746       18.2390956795       18.1239320361
  H        22.4851338456       22.2484593568       18.0070578961
  H        22.0720009835       21.1025342781       19.1300748400
  H        21.2656409963       19.0493038764       23.3070575876
  H        20.5495056678       18.6847871555       21.9284533300
  H        16.7194754523       22.7659779191       19.5072642525
  H        18.1733491533       22.3776349602       19.7516505442
  H        19.6488233799       17.9915355215       20.3707789356
  H        19.1978913409       17.0918629673       21.6440124151
  H        19.8454395001       22.3337845962       20.7855913875
  H        20.3141569907       22.4898504222       19.3179235568
  H        18.2003579514       20.8029757501       22.4090194420
  H        17.2414991811       20.8482646175       21.1451527373
  H        18.2239751370       20.7799368448       16.7461438592
  H        17.7065582371       21.1861865344       18.2094924683
  H        23.1975510948       20.9677749625       20.8412420524
  H        22.4219644701       19.7270206864       21.0334658385
  H        20.6113375502       20.7203979460       22.5565193797
  H        20.2238096314       22.0222489749       23.3477942741
  H        17.3727949671       18.5781397437       22.1176811510
  H        16.6810306668       17.3002974164       21.4212313155
  H        18.5858358304       19.3084608703       18.2767516291
  O        19.2263725604       18.6293875729       18.8374058626
  O        21.7497011927       21.8365518134       18.5458360515
  O        21.2870628731       19.3169444481       22.3491655193
  O        17.3149083407       21.9748587378       19.5960756665
  O        20.0158311375       17.5870164439       21.2370072077
  O        19.6445560310       22.8749855102       19.9712068792
  O        17.3469484928       20.4667331439       22.0247013912
  O        17.8239979472       20.3967058170       17.5161867974
  O        22.8530647538       20.2190487502       20.3480604177
  O        19.8811414992       21.4338492771       22.6146358563
  O        17.3085525605       17.5228601023       22.1446195428
      33
 i =        6, time =        6.000, E =      -189.4117643657
  H        19.7578462694       18.2242952835       18.1492684295
  H        22.4786443853       22.2220760740       18.0440262501
  H        22.0620355283       21.0975862528       19.1146559545
  H        21.2571492350       19.0542657421       23.3286959483
  H        20.5522886947       18.6999117559       21.9157047113
  H        16.7156654212       22.7557381535       19.5059570281
  H        18.1806203596       22.4011503703       19.7587335091
  H        19.6603244350       17.9623954108       20.3737310503
  H        19.1935291797       17.1146547895       21.6083214371
  H        19.8342420979       22.3351563356       20.7948931296
  H        20.3076077178       22.5052656078       19.3370941427
  H        18.2322624388       20.8076917677       22.4166295985
  H        17.2505870774       20.8436567209       21.1537832179
  H        18.2155056348       20.7727291504       16.7576202254
  H        17.7006362118       21.1875471688       18.1759685429
  H        23.1960291281       21.0038264935       20.8559637557
  H        22.4230766838       19.7111412916       21.0358875519
  H        20.5880315865       20.7236278559       22.5546319678
  H        20.2342672973       21.9891124214       23.3473770240
  H        17.3653717262       18.5388379802       22.1395575520
  H        16.6829078403       17.3097268833       21.4255404495
  H        18.5782355201       19.2798410579       18.2865055435
  O        19.2220931402       18.6271847399       18.8321331853
  O        21.7559837732       21.8385036838       18.5399210144
  O        21.2958185035       19.3184457477       22.3552575485
  O        17.3132346414       21.9743467651       19.6007532485
  O        20.0127841306       17.5852902783       21.2320475543
  O        19.6434133760       22.8772068477       19.9745587127
  O        17.3430320408       20.4591083228       22.0224432529
  O        17.8235284551       20.4014995999       17.5125297049
  O        22.8565383765       20.2146856073       20.3501901016
  O        19.8779000921       21.4413298621       22.6082536389
  O        17.3100685927       17.5251533665       22.1493002606
      33
 i =        7, time =        7.000, E =      -189.4118165993
  H        19.7620403158       18.2054041725       18.1675366589
  H        22.4802723378       22.1968633623       18.0782734565
  H        22.0582675450       21.0888319702       19.1008703597
  H        21.2514796737       19.0604644728       23.3369354843
  H        20.5590999419       18.7105018740       21.9032638250
  H        16.7123980564       22.7405357187       19.5052089156
  H        18.2049853728       22.4309909406       19.7683366879
  H        19.6707658817       17.9339026071       20.3737191243
  H        19.1943076141       17.1456409744       21.5702293100
  H        19.8221999072       22.3407774624       20.8032970887
  H        20.3044528074       22.5218113782       19.3533494861
  H        18.2509126597       20.8091392053       22.4154838638
  H        17.2598677103       20.8469881679       21.1487474593
  H        18.2193591127       20.7757178926       16.7468594416
  H        17.6929045584       21.1797697666       18.1388077166
  H        23.1923700223       21.0326712361       20.8664101330
  H        22.4150200530       19.6845187324       21.0521271428
  H        20.5632940503       20.7209592738       22.5485620789
  H        20.2401687318       21.9569136383       23.3441900519
  H        17.3554315161       18.4949848144       22.1600657236
  H        16.6859824917       17.3211462003       21.4313355355
  H        18.5807198189       19.2434630572       18.3045242444
  O        19.2170564489       18.6256416311       18.8269117721
  O        21.7613459039       21.8406890796       18.5337969710
  O        21.3045516624       19.3201410615       22.3624602930
  O        17.3103322682       21.9737042313       19.6051735286
  O        20.0090040473       17.5830997280       21.2270342313
  O        19.6423170944       22.8791403510       19.9784665759
  O        17.3397467731       20.4509622625       22.0217153948
  O        17.8222061389       20.4061784170       17.5104987830
  O        22.8609011862       20.2113634688       20.3518060249
  O        19.8749180377       21.4493563811       22.6021255284
  O        17.3117493602       17.5276058634       22.1538007958
      33
 i =        8, time =        8.000, E =      -189.4088843037
  H        19.7723984994       18.1822084449       18.1768353856
  H        22.5059434998       22.1814808141       18.0991229879
  H        22.0594695103       21.0765792667       19.0889957533
  H        21.2486607295       19.0674721196       23.3315721030
  H        20.5708854770       18.7171860621       21.8928590433
  H        16.7066509043       22.7241795724       19.5048099351
  H        18.2339578692       22.4605361223       19.7775208243
  H        19.6789504306       17.9098807866       20.3642316639
  H        19.1913595247       17.1784033201       21.5362337540
  H        19.8096996614       22.3504763213       20.8107078317
  H        20.3085200792       22.5369007624       19.3627204206
  H        18.2505378585       20.8050126757       22.4039408228
  H        17.2691954830       20.8568395204       21.1330668342
  H        18.2331105922       20.7863765784       16.7181206924
  H        17.6826248536       21.1696886302       18.1045006256
  H        23.1828795288       21.0455776829       20.8683398918
  H        22.4046689101       19.6556941847       21.0732330592
  H        20.5390025332       20.7106923358       22.5374789444
  H        20.2437553503       21.9306223019       23.3441958514
  H        17.3443063926       18.4656730998       22.1796067023
  H        16.6891394409       17.3337062075       21.4376018581
  H        18.5888999123       19.2043093225       18.3259423118
  O        19.2115283221       18.6244316997       18.8221509092
  O        21.7648079718       21.8425577384       18.5281569582
  O        21.3131126997       19.3219590222       22.3706867186
  O        17.3071804949       21.9730918822       19.6095366310
  O        20.0051730683       17.5806686486       21.2220045705
  O        19.6409947410       22.8809420294       19.9831939639
  O        17.3374600637       20.4426018300       22.0224400827
  O        17.8202313997       20.4104756995       17.5093903750
  O        22.8659604057       20.2090906208       20.3537570350
  O        19.8719881496       21.4577732104       22.5959239824
  O        17.3135588692       17.5290693346       22.1581561055
      33
 i =        9, time =        9.000, E =      -189.4087031861
  H        19.7851704493       18.1577155014       18.1801681468
  H        22.5568408783       22.1767682718       18.1062151472
  H        22.0638299319       21.0625826212       19.0783408278
  H        21.2485489319       19.0736286943       23.3178770365
  H        20.5879816097       18.7203527587       21.8856061632
  H        16.6954727456       22.7105518266       19.5045187061
  H        18.2579186344       22.4844330018       19.7838330543
  H        19.6851572956       17.8924647139       20.3421356051
  H        19.1747547271       17.2069426943       21.5124520478
  H        19.7975596463       22.3631615961       20.8182771478
  H        20.3209492450       22.5494241289       19.3641366259
  H        18.2309723018       20.7950311100       22.3832010922
  H        17.2784680401       20.8690982013       21.1152023631
  H        18.2490817034       20.7978650215       16.6859974899
  H        17.6686155184       21.1667046714       18.0804551935
  H        23.1667962376       21.0401914912       20.8612313774
  H        22.3985068048       19.6329892135       21.0904206077
  H        20.5154383081       20.6934320748       22.5212303207
  H        20.2470070431       21.9131266879       23.3516435179
  H        17.3329056756       18.4677332526       22.1991947157
  H        16.6909506961       17.3464151655       21.4428862373
  H        18.5939888927       19.1709368769       18.3425839828
  O        19.2062939466       18.6228005136       18.8181590747
  O        21.7663436119       21.8439497083       18.5231378056
  O        21.3213920417       19.3239098712       22.3795312841
  O        17.3045990916       21.9725767360       19.6140081830
  O        20.0019569251       17.5783145491       21.2168302467
  O        19.6393093739       22.8827201852       19.9887336444
  O        17.3361894620       20.4343547366       22.0239948370
  O        17.8181693456       20.4142396055       17.5077888170
  O        22.8713434668       20.2075003694       20.3566434686
  O        19.8690201311       21.4663900886       22.5893906842
  O        17.3155142869       17.5285665987       22.1623946793
      33
 i =       10, time =       10.000, E =      -189.4108898001
  H        19.7948331945       18.1363813263       18.1822749920
  H        22.6166379224       22.1759957352       18.1087439132
  H        22.0694537742       21.0492883909       19.0677440922
  H        21.2506381412       19.0763304483       23.3054512558
  H        20.6099668923       18.7199540411       21.8818520788
  H        16.6777359498       22.7013615090       19.5043676465
  H        18.2717734508       22.4997115782       19.7858245074
  H        19.6912493035       17.8812988127       20.3101434847
  H        19.1408592375       17.2296509078       21.5013392956
  H        19.7868702287       22.3771979170       20.8278849164
  H        20.3391659200       22.5601406464       19.3603510345
  H        18.1979918091       20.7810759927       22.3571732369
  H        17.2870637485       20.8793730942       21.1033098847
  H        18.2603446752       20.8044832643       16.6637677028
  H        17.6500367538       21.1774317634       18.0712006562
  H        23.1457934924       21.0203888092       20.8479285365
  H        22.4004641377       19.6216012082       21.0982785131
  H        20.4915266924       20.6721181726       22.5005180385
  H        20.2501582729       21.9037191258       23.3661296852
  H        17.3212214202       18.4997540515       22.2193542810
  H        16.6902852566       17.3585796207       21.4459562512
  H        18.5856882537       19.1525890417       18.3454164687
  O        19.2023247336       18.6198705436       18.8151752122
  O        21.7670493773       21.8451356655       18.5183147388
  O        21.3293419585       19.3260948291       22.3883211703
  O        17.3030281897       21.9722082475       19.6186649560
  O        19.9995231531       17.5762444462       21.2112716275
  O        19.6373400319       22.8844902066       19.9947736127
  O        17.3356137637       20.4263900478       22.0255946078
  O        17.8165149148       20.4174149732       17.5045549210
  O        22.8766648599       20.2060359196       20.3606265545
  O        19.8661028166       21.4750578213       22.5825253828
  O        17.3176815909       17.5262607310       22.1665583634
      33
 i =       11, time =       11.000, E =      -189.4102869968
  H        19.7972079771       18.1216148181       18.1863681351
  H        22.6669936833       22.1725783568       18.1154935557
  H        22.0745776820       21.0390411068       19.0560973815
  H        21.2541793774       19.0729815470       23.3042483500
  H        20.6357636623       18.7155145099       21.8812324211
  H        16.6551212603       22.6951236475       19.5048573165
  H        18.2738071620       22.5053739423       19.7829885678
  H        19.6994769721       17.8743996115       20.2752566976
  H        19.0961687542       17.2500594319       21.5006653568
  H        19.7787114833       22.3910877767       20.8411597872
  H        20.3584180461       22.5707276512       19.3563634091
  H        18.1642735600       20.7676764337       22.3324866479
  H        17.2938173614       20.8844779993       21.1020846932
  H        18.2632838151       20.8035761305       16.6583780647
  H        17.6276101321       21.1999577547       18.0749287913
  H        23.1235838354       20.9963736061       20.8345778788
  H        22.4118088659       19.6232284700       21.0948475615
  H        20.4658261664       20.6508784302       22.4768049983
  H        20.2516684515       21.8989109414       23.3828548367
  H        17.3090846770       18.5438059797       22.2391911595
  H        16.6869913943       17.3700511633       21.4465928167
  H        18.5608784863       19.1518068332       18.3312772231
  O        19.2000468905       18.6152750316       18.8131492205
  O        21.7681658879       21.8463839225       18.5132833907
  O        21.3369857237       19.3286599308       22.3963816839
  O        17.3025238099       21.9721160116       19.6234841562
  O        19.9973667769       17.5744428067       21.2051389056
  O        19.6353086873       22.8861987125       20.0008548957
  O        17.3350108262       20.4185917915       22.0265052839
  O        17.8154511601       20.4202784194       17.4993666341
  O        22.8815626290       20.2039638647       20.3654158338
  O        19.8634367297       21.4836945856       22.5755715804
  O        17.3200857310       17.5233206500       22.1707060325
      33
 i =       12, time =       12.000, E =      -189.4077826894
  H        19.7910823778       18.1143964632       18.1928292105
  H        22.6966220241       22.1634352844       18.1306814483
  H        22.0776400916       21.0334227507       19.0427455735
  H        21.2587260956       19.0627058765       23.3179444574
  H        20.6639756275       18.7063630868       21.8829406191
  H        16.6313722205       22.6883524320       19.5068079332
  H        18.2643776325       22.5018020643       19.7755650911
  H        19.7112352007       17.8696208770       20.2449861703
  H        19.0519816423       17.2731851615       21.5059971278
  H        19.7738539081       22.4041586564       20.8584064283
  H        20.3741378620       22.5826160359       19.3570547080
  H        18.1467517130       20.7611663669       22.3170190140
  H        17.2973350853       20.8828073693       21.1123375423
  H        18.2577778539       20.7953492945       16.6701625501
  H        17.6036957778       21.2253953110       18.0853008340
  H        23.1047889741       20.9825259382       20.8292647001
  H        22.4312670154       19.6360745658       21.0814690930
  H        20.4374780491       20.6335267601       22.4519872289
  H        20.2495783304       21.8946922543       23.3957979215
  H        17.2968520356       18.5817049880       22.2570353651
  H        16.6821722706       17.3810737899       21.4459122714
  H        18.5276629417       19.1619036567       18.3057520594
  O        19.1990013342       18.6094126065       18.8116502228
  O        21.7704950144       21.8477869408       18.5078873174
  O        21.3443734055       19.3316795157       22.4034633265
  O        17.3028692746       21.9724794238       19.6283593473
  O        19.9947264475       17.5727938192       21.1983607729
  O        19.6334531237       22.8877650591       20.0065966212
  O        17.3333978216       20.4105969117       22.0261728166
  O        17.8148370798       20.4233533693       17.4926299843
  O        22.8857735297       20.2005075711       20.3703643907
  O        19.8611986690       21.4922632227       22.5688163410
  O        17.3226489340       17.5209018719       22.1748591206
      33
 i =       13, time =       13.000, E =      -189.4087065400
  H        19.7783787029       18.1130771241       18.1992689473
  H        22.7018905866       22.1485785067       18.1545933516
  H        22.0773598565       21.0327881437       19.0277321526
  H        21.2645321436       19.0473044047       23.3409393439
  H        20.6933229052       18.6920191317       21.8861038605
  H        16.6105104577       22.6777676473       19.5109913601
  H        18.2451864778       22.4904498980       19.7643494011
  H        19.7267177978       17.8654926676       20.2247350068
  H        19.0177292982       17.3024157110       21.5132434031
  H        19.7725929698       22.4168155405       20.8781072742
  H        20.3833472657       22.5964620454       19.3657188125
  H        18.1551620313       20.7651485309       22.3153779606
  H        17.2964018461       20.8744455689       21.1314267161
  H        18.2472266224       20.7827787918       16.6929239696
  H        17.5811069569       21.2442288940       18.0959754131
  H        23.0921578037       20.9888294593       20.8370495298
  H        22.4547572826       19.6545249056       21.0634665064
  H        20.4066460842       20.6225738935       22.4279956718
  H        20.2427877643       21.8882574151       23.4007826214
  H        17.2852865448       18.6024417290       22.2714322474
  H        16.6777306832       17.3919129808       21.4458424453
  H        18.4978673052       19.1737673646       18.2775166483
  O        19.1983061449       18.6030302563       18.8102299102
  O        21.7743541552       21.8493149423       18.5021497207
  O        21.3515449285       19.3350716425       22.4099185611
  O        17.3037169891       21.9734122813       19.6331341015
  O        19.9910288810       17.5712090724       21.1909719661
  O        19.6319478753       22.8891065656       20.0118332448
  O        17.3302240525       20.4020960859       22.0244867512
  O        17.8142860347       20.4270226240       17.4851878097
  O        22.8893379196       20.1954121525       20.3747540492
  O        19.8594518593       21.5007432263       22.5624082018
  O        17.3252230530       17.5196962307       22.1789847657
      33
 i =       14, time =       14.000, E =      -189.4092616360
  H        19.7633092800       18.1140484651       18.2013581985
  H        22.6862626934       22.1304797745       18.1845286396
  H        22.0728392498       21.0359844513       19.0119423725
  H        21.2722627252       19.0301705759       23.3630347468
  H        20.7229798524       18.6726095463       21.8901088825
  H        16.5952636280       22.6618755542       19.5178312530
  H        18.2192803456       22.4738704791       19.7505378202
  H        19.7451718214       17.8613986866       20.2168637805
  H        18.9987980458       17.3388902114       21.5195256058
  H        19.7747745419       22.4301949339       20.8973997031
  H        20.3851832125       22.6120978995       19.3834834798
  H        18.1821410693       20.7762439894       22.3253703326
  H        17.2903156924       20.8613775081       21.1536825622
  H        18.2385165561       20.7716205734       16.7141850603
  H        17.5621568700       21.2501123916       18.1027934625
  H        23.0844450406       21.0116168677       20.8549798483
  H        22.4754707867       19.6694470870       21.0505741489