      51
 i =        1, time =        1.000, E =      -292.7335859583
  H        17.4534238803       17.0002947080       19.0314944338
  H        20.7516064195       20.6710463891       19.2394689005
  H        21.8328083243       19.6231820694       18.6358972399
  H        19.4201402992       15.6325142974       22.4997128566
  H        18.3013561904       16.7482336441       21.9065106510
  H        19.7716657574       23.2835231981       23.1395045375
  H        18.5936201478       24.3688807297       23.1209205512
  H        16.6336954548       17.0869793536       20.8808697718
  H        16.9468957301       18.1152576034       21.9971286653
  H        23.4212137294       21.0539198772       18.9434340235
  H        22.7317336190       22.3646057840       18.8835572057
  H        20.4873396543       19.5093758411       23.4132834361
  H        20.4050847970       21.0133562519       23.7871629406
  H        19.9923323036       19.8116118807       17.0417879040
  H        18.6473265263       20.0248688451       16.2719912151
  H        22.9656950601       16.9093104548       21.1041996879
  H        22.3131467619       16.4644965838       19.7564618310
  H        20.6554858543       17.5338533227       22.6254868396
  H        21.6193243583       18.6205234286       22.0973361896
  H        18.4935519248       19.9249073691       22.8655920619
  H        17.3045319412       20.8644810511       22.5769004914
  H        23.1428371466       18.2947240240       19.2652873249
  H        23.4639355103       18.6292034388       17.6427556090
  H        19.3210824688       22.5198991310       21.2527548907
  H        18.7758969707       21.1263703640       21.0587026688
  H        19.8192772316       16.1236440421       20.4477052459
  H        20.1032494131       16.4224250594       18.8599883517
  H        21.9013767550       23.5938838715       23.1376711104
  H        21.7445335955       22.2074592064       22.7248249581
  H        21.0994223714       21.0857838320       21.3600757026
  H        22.5170096618       21.3594924931       20.8219561448
  H        18.9634864652       18.1669757854       17.4640525302
  H        19.3117139109       18.6630588330       18.9356727581
  H        16.6808056920       15.7071126802       19.2192164854
  O        16.5230591458       16.6781222678       19.3005931506
  O        20.8525818675       19.9195087600       18.5659081363
  O        19.3716935592       16.5403503832       22.0910920578
  O        18.8920661336       23.5938976420       22.6656326505
  O        16.9796357328       17.1710097767       21.7658276418
  O        23.3598651509       21.8512714274       19.4285215882
  O        19.8838150030       20.2054912182       23.7428832614
  O        19.4744176717       19.4742813341       16.2211411441
  O        22.9879030953       17.0422794176       20.0835622779
  O        21.4530873055       18.0833458766       22.9482128980
  O        17.7066851729       20.0610429361       22.1495548912
  O        23.3621062200       19.0509774093       18.5242214254
  O        19.4637191819       21.7801425156       20.6765549117
  O        20.4357362467       15.8771546888       19.6439357718
  O        21.3536477874       22.8270005849       23.4297544462
  O        22.0433266350       20.9940645876       21.6215711695
  O        18.8635890901       17.9183849461       18.4254839520
      51
 i =        2, time =        2.000, E =      -292.7311652519
  H        17.4623386450       16.9887360480       19.0505485105
  H        20.7580534484       20.6980944179       19.2491567238
  H        21.8279131695       19.6247481469       18.6364269868
  H        19.3915346468       15.6432283471       22.4669164854
  H        18.2998469517       16.7310708664       21.9113607057
  H        19.7762827163       23.2896484367       23.1229839111
  H        18.6175687369       24.3793980032       23.1558899258
  H        16.6266569746       17.0797537230       20.8740995795
  H        16.9528556936       18.1171005303       21.9938623585
  H        23.4210005160       21.0280630339       18.9442059728
  H        22.7436578235       22.3464322665       18.8898634428
  H        20.4969632634       19.4998783692       23.4100597087
  H        20.4282962542       21.0094255034       23.8038742876
  H        19.9697671194       19.8227977691       17.0048655224
  H        18.6609935110       20.0030735981       16.2940436348
  H        22.9519457875       16.9270619331       21.1008965365
  H        22.3062600059       16.4586201378       19.7796586518
  H        20.6706678054       17.5386895989       22.6361883594
  H        21.6398487337       18.6205724648       22.0704490375
  H        18.4931935038       19.9470892257       22.8886104457
  H        17.3045025070       20.8375794217       22.5622096202
  H        23.1639794217       18.2706908438       19.2621064430
  H        23.4523061018       18.6514260245       17.6383000760
  H        19.3011939291       22.5389397607       21.2622918497
  H        18.7670589169       21.0962019908       21.0490479811
  H        19.8184113735       16.0968647669       20.4663095756
  H        20.0918036703       16.4194168224       18.8497529210
  H        21.9035563465       23.5927889793       23.1276724829
  H        21.7436657879       22.2332654691       22.7201370913
  H        21.0808342265       21.1012096653       21.3904806122
  H        22.4900382962       21.3663332310       20.8047490634
  H        18.9614825508       18.1414237399       17.4678465575
  H        19.3000322950       18.6747097597       18.9416724067
  H        16.6577820819       15.7014138793       19.2126295445
  O        16.5221663026       16.6791620565       19.3050178703
  O        20.8519127561       19.9262102629       18.5669397131
  O        19.3744984118       16.5354053127       22.0946346987
  O        18.9003867008       23.5963022992       22.6621542538
  O        16.9787665948       17.1727026638       21.7678697471
  O        23.3559549553       21.8527202999       19.4259086824
  O        19.8843609040       20.2052770202       23.7441313483
  O        19.4723510134       19.4744142285       16.2147286510
  O        22.9874199397       17.0451455231       20.0826941508
  O        21.4479814295       18.0836866396       22.9533714872
  O        17.7087127403       20.0619494252       22.1509504113
  O        23.3645605143       19.0522589820       18.5195322290
  O        19.4651544329       21.7802246527       20.6726792371
  O        20.4348014887       15.8793460949       19.6448466886
  O        21.3541568010       22.8225628473       23.4308880183
  O        22.0385506185       20.9898991014       21.6210302901
  O        18.8680668282       17.9143774818       18.4251141487
      51
 i =        3, time =        3.000, E =      -292.7324477156
  H        17.4633602901       16.9806431492       19.0683432505
  H        20.7638848646       20.7113702736       19.2461212248
  H        21.8192400237       19.6262872761       18.6344434169
  H        19.3639145118       15.6491624495       22.4380014479
  H        18.3079539529       16.7158029786       21.9201981395
  H        19.7720287258       23.3004845987       23.1015470041
  H        18.6402004346       24.3929427283       23.1920454969
  H        16.6133870767       17.0697420765       20.8492045203
  H        16.9594156377       18.1275235802       21.9920208864
  H        23.4254732967       20.9860360356       18.9381676654
  H        22.7473525110       22.3374751297       18.8883355496
  H        20.5109695683       19.4858682840       23.4096424368
  H        20.4524561163       21.0083059759       23.8218213949
  H        19.9512362891       19.8333636869       16.9676582166
  H        18.6703907398       19.9828058834       16.3135747441
  H        22.9388906135       16.9490399374       21.0807018602
  H        22.2778456303       16.4391035609       19.7963733644
  H        20.6840041008       17.5403710625       22.6483274132
  H        21.6590789084       18.6100162022       22.0641219467
  H        18.4834466971       19.9728074363       22.8976847065
  H        17.2979146912       20.8167027858       22.5486584058
  H        23.1917507077       18.2546442260       19.2457322983
  H        23.4410895565       18.6702620409       17.6333804954
  H        19.2786013777       22.5663746921       21.2746999143
  H        18.7682934554       21.0750774660       21.0337499313
  H        19.8294196127       16.0704595915       20.4715728581
  H        20.0808809107       16.4114421297       18.8542521111
  H        21.9006745824       23.5931877378       23.1259795637
  H        21.7418157783       22.2471065712       22.7137918155
  H        21.0580855596       21.1169183944       21.4188189373
  H        22.4659577028       21.3720377603       20.7890295264
  H        18.9609835495       18.1209294134       17.4701886844
  H        19.2864225072       18.6779223522       18.9375948340
  H        16.6308919164       15.6998447089       19.2069811921
  O        16.5219979607       16.6798071606       19.3090675504
  O        20.8511854838       19.9339151038       18.5689405147
  O        19.3766721485       16.5306063813       22.0977939693
  O        18.9092827611       23.5982838119       22.6590425238
  O        16.9781519407       17.1741529847       21.7711979783
  O        23.3521542735       21.8545428840       19.4241897603
  O        19.8845013970       20.2049215636       23.7452965604
  O        19.4702763200       19.4744327372       16.2084067936
  O        22.9878347634       17.0485739094       20.0834727394
  O        21.4431898393       18.0848696670       22.9569614863
  O        17.7118036128       20.0624706929       22.1531016561
  O        23.3665530009       19.0533909821       18.5157823622
  O        19.4660476677       21.7790150159       20.6687845106
  O        20.4334273359       15.8818601833       19.6457013518
  O        21.3552632819       22.8187308706       23.4317445203
  O        22.0337599456       20.9858810850       21.6204963985
  O        18.8726556994       17.9104106096       18.4254253309
      51
 i =        4, time =        4.000, E =      -292.7362864217
  H        17.4580404700       16.9760080412       19.0842042884
  H        20.7692580723       20.7105300041       19.2306559961
  H        21.8077876026       19.6276160438       18.6306951913
  H        19.3384043653       15.6389118542       22.4177759890
  H        18.3246249089       16.7046080943       21.9320747682
  H        19.7647888487       23.3129085955       23.0782287372
  H        18.6639450492       24.4003685869       23.2225613079
  H        16.5988696840       17.0586175732       20.8187280164
  H        16.9667197970       18.1430716417       21.9904445668
  H        23.4327332986       20.9441229630       18.9342278396
  H        22.7389466195       22.3401725854       18.8748739935
  H        20.5247795891       19.4718507362       23.4139617675
  H        20.4737275666       21.0049421404       23.8405673730
  H        19.9447144604       19.8465751345       16.9398628044
  H        18.6663246673       19.9685021448       16.3301797751
  H        22.9274327778       16.9746763146       21.0521205173
  H        22.2381873377       16.4154709048       19.8100755278
  H        20.6905826727       17.5356810072       22.6596133471
  H        21.6755841960       18.5883688680       22.0799864769
  H        18.4664473979       20.0004144967       22.8932805551
  H        17.2794571721       20.8103278149       22.5399308670
  H        23.2247640657       18.2475667834       19.2168887274
  H        23.4307904542       18.6845687371       17.6244811150
  H        19.2552688397       22.5900647372       21.2814182410
  H        18.7809909857       21.0657271115       21.0130124797
  H        19.8501630786       16.0461660690       20.4649429834
  H        20.0698999494       16.3998405161       18.8725715066
  H        21.8925337198       23.5948688912       23.1332774492
  H        21.7398052253       22.2468188882       22.7043511401
  H        21.0360478999       21.1319415644       21.4454616146
  H        22.4438769312       21.3755510596       20.7769505370
  H        18.9624362334       18.1063072309       17.4691909899
  H        19.2720871352       18.6739530124       18.9240396149
  H        16.6007210846       15.7026795494       19.2022701157
  O        16.5224123079       16.6800481486       19.3127917557
  O        20.8503192232       19.9426597532       18.5718886799
  O        19.3781939060       16.5265279048       22.1003244435
  O        18.9181917771       23.6005695858       22.6565194029
  O        16.9774782182       17.1754469317       21.7750940664
  O        23.3488258862       21.8555303382       19.4230826003
  O        19.8847482565       20.2044715206       23.7462858811
  O        19.4682557299       19.4738309558       16.2016054762
  O        22.9884538326       17.0519685346       20.0851266162
  O        21.4390853212       18.0871707560       22.9590240111
  O        17.7161855753       20.0621385362       22.1557406152
  O        23.3681352626       19.0544056747       18.5131443467
  O        19.4661646732       21.7771253430       20.6654225443
  O        20.4318066184       15.8845508165       19.6464795072
  O        21.3569672758       22.8156473922       23.4323768919
  O        22.0287115163       20.9821052589       21.6197756824
  O        18.8772602606       17.9063238345       18.4265111418
      51
 i =        5, time =        5.000, E =      -292.7403323541
  H        17.4495391181       16.9749893874       19.0971711021
  H        20.7739298636       20.7002251191       19.2072910515
  H        21.7952395412       19.6283383822       18.6260108449
  H        19.3156747957       15.6113656231       22.4065903218
  H        18.3471506127       16.6995026715       21.9458317009
  H        19.7630139290       23.3229541981       23.0571128847
  H        18.6895739132       24.3965069039       23.2428036106
  H        16.5877643919       17.0481821154       20.7943000609
  H        16.9747936102       18.1582685895       21.9875706475
  H        23.4408730880       20.9146000486       18.9381274870
  H        22.7226360149       22.3502245178       18.8524304719
  H        20.5346344295       19.4614557911       23.4243666318
  H        20.4891738231       20.9957137992       23.8596835256
  H        19.9546401098       19.8645123345       16.9265818125
  H        18.6466367432       19.9604800382       16.3435810287
  H        22.9177858298       17.0029605744       21.0290312498
  H        22.1988872521       16.3981084246       19.8243666220
  H        20.6883395977       17.5233586008       22.6689451945
  H        21.6894479033       18.5584644662       22.1136020085
  H        18.4462272566       20.0280793503       22.8784488870
  H        17.2487830114       20.8178737389       22.5351888659
  H        23.2612680341       18.2487108739       19.1782473389
  H        23.4216376164       18.6947703545       17.6111806962
  H        19.2328765304       22.6018245409       21.2770183227
  H        18.8036227360       21.0678058045       20.9882662322
  H        19.8760341159       16.0258236852       20.4517315942
  H        20.0568620923       16.3882788144       18.8995512471
  H        21.8802942956       23.5984870167       23.1489949692
  H        21.7375240014       22.2335343439       22.6930227332
  H        21.0194300054       21.1451034294       21.4703809328
  H        22.4232805422       21.3762776962       20.7699188673
  H        18.9659325387       18.0975434929       17.4649521213
  H        19.2594765788       18.6670748253       18.9041824697
  H        16.5682377265       15.7083960154       19.1982684683
  O        16.5231423974       16.6799750485       19.3162705246
  O        20.8492267921       19.9521907655       18.5754838292
  O        19.3791886510       16.5231140808       22.1022792810
  O        18.9265243404       23.6036963232       22.6545934573
  O        16.9764573089       17.1767975246       21.7789264610
  O        23.3458326125       21.8551508829       19.4220545315
  O        19.8855245183       20.2039538564       23.7470443682
  O        19.4661369793       19.4724406384       16.1940533343
  O        22.9885384401       17.0546971151       20.0865303051
  O        21.4357541432       18.0905205941       22.9599144124
  O        17.7216327799       20.0610415077       22.1587308739
  O        23.3694039601       19.0553532625       18.5114658484
  O        19.4654776516       21.7751190281       20.6628597355
  O        20.4303794325       15.8871025198       19.6471686523
  O        21.3592475819       22.8131932964       23.4327404259
  O        22.0231414074       20.9786527466       21.6187546342
  O        18.8817165270       17.9018160267       18.4281780466
      51
 i =        6, time =        6.000, E =      -292.7380681266
  H        17.4417149593       16.9776522188       19.1061869422
  H        20.7772364013       20.6902676491       19.1847116151
  H        21.7836946347       19.6278711932       18.6211782340
  H        19.2966944491       15.5765387083       22.4008727940
  H        18.3712586317       16.7020229989       21.9602448745
  H        19.7741597500       23.3271075287       23.0413866307
  H        18.7162248460       24.3810543948       23.2515590209
  H        16.5829710510       17.0398439683       20.7833477833
  H        16.9834775695       18.1682711206       21.9821653501
  H        23.4484493272       20.9037710649       18.9519463075
  H        22.7069961456       22.3599233906       18.8281823784
  H        20.5383519851       19.4565608327       23.4412179634
  H        20.4977195877       20.9797144963       23.8790112486
  H        19.9784141468       19.8854301052       16.9240640389
  H        18.6178083065       19.9547265444       16.3531137179
  H        22.9095464315       17.0331781907       21.0247830868
  H        22.1679073063       16.3937115835       19.8411586727
  H        20.6794937831       17.5053171583       22.6768607428
  H        21.7029922400       18.5267322599       22.1534258726
  H        18.4289028800       20.0543146608       22.8592257506
  H        17.2112333419       20.8302086511       22.5297575405
  H        23.2994033014       18.2549670421       19.1344717517
  H        23.4136609584       18.7026544503       17.5962214160
  H        19.2124864954       22.5980550155       21.2595883103
  H        18.8314638490       21.0772375403       20.9621725697
  H        19.9004365446       16.0110594286       20.4408209957
  H        20.0385766967       16.3820136259       18.9270788884
  H        21.8660943247       23.6052789818       23.1715151988
  H        21.7342994167       22.2110771889       22.6830651800
  H        21.0111885968       21.1552610641       21.4930980344
  H        22.4041616163       21.3742562986       20.7682160906
  H        18.9712465767       18.0939116686       17.4594236125
  H        19.2516555508       18.6635178771       18.8827645185
  H        16.5345789383       15.7143924664       19.1945018497
  O        16.5238678124       16.6797442169       19.3196089116
  O        20.8478279828       19.9619476050       18.5791556822
  O        19.3798728604       16.5196297285       22.1039730108
  O        18.9338786593       23.6078814332       22.6531162829
  O        16.9749193902       17.1784190841       21.7823167982
  O        23.3427364955       21.8534779716       19.4205325004
  O        19.8870525044       20.2033437874       23.7475631796
  O        19.4636730767       19.4706124934       16.1860793510
  O        22.9876173256       17.0563356169       20.0866951890
  O        21.4328745357       18.0944090342       22.9603359347
  O        17.7274141360       20.0597811348       22.1619976921
  O        23.3704741573       19.0563438781       18.5102597919
  O        19.4642056291       21.7735041878       20.6610546415
  O        20.4297794396       15.8890882346       19.6477079501
  O        21.3620597864       22.8110444414       23.4327218418
  O        22.0168573590       20.9755651209       21.6174305450
  O        18.8858306686       17.8965115851       18.4300104334
      51
 i =        7, time =        7.000, E =      -292.7347255424
  H        17.4376442396       16.9835769608       19.1103734189
  H        20.7783516659       20.6929551973       19.1733303255
  H        21.7750460477       19.6256649415       18.6169131244
  H        19.2825531516       15.5470844465       22.3964947686
  H        18.3916645257       16.7130548482       21.9741924827
  H        19.7996505962       23.3240522385       23.0311063992
  H        18.7417897153       24.3583960206       23.2514466793
  H        16.5856776434       17.0345151193       20.7892535982
  H        16.9924555793       18.1705985789       21.9736870737
  H        23.4546374987       20.9128478757       18.9749982115
  H        22.6993603129       22.3627598114       18.8086088248
  H        20.5355607620       19.4570018958       23.4638253884
  H        20.5004333401       20.9589944358       23.8988618470
  H        20.0084427802       19.9047540201       16.9233046561
  H        18.5898614472       19.9462018987       16.3579859828
  H        22.9026006463       17.0653906801       21.0419488561
  H        22.1493896390       16.4051098726       19.8608597328
  H        20.6690790242       17.4857659410       22.6846875675
  H        21.7211872518       18.5025038099       22.1814971154
  H        18.4220521414       20.0785180566       22.8438738424
  H        17.1741490580       20.8367918735       22.5189817460
  H        23.3374822695       18.2604039603       19.0920599895
  H        23.4068531433       18.7104464384       17.5835313267
  H        19.1943770411       22.5794823078       21.2303334045
  H        18.8565464709       21.0858148863       20.9385709279
  H        19.9170138165       16.0028677814       20.4417361412
  H        20.0120771845       16.3856501681       18.9478602983
  H        21.8523194754       23.6163709176       23.1987109210
  H        21.7296927778       22.1845303748       22.6781232787
  H        21.0117859213       21.1615489635       21.5128350862
  H        22.3870264927       21.3701863631       20.7709028511
  H        18.9779409475       18.0942454279       17.4552371365
  H        19.2509854350       18.6685577982       18.8639554981
  H        16.5009339023       15.7182853184       19.1903523437
  O        16.5243178687       16.6795199978       19.3229041039
  O        20.8460623609       19.9712182002       18.5822210319
  O        19.3805211879       16.5151953945       22.1057574971
  O        18.9403223178       23.6129253254       22.6519010012
  O        16.9728116150       17.1804285510       21.7851048833
  O        23.3391447099       21.8508549857       19.4181581955
  O        19.8893113300       20.2025589495       23.7478620551
  O        19.4607133664       19.4689485666       16.1783553273
  O        22.9854508058       17.0566549742       20.0854113563
  O        21.4297871800       18.0979857218       22.9613499170
  O        17.7325722159       20.0590082795       22.1653256204
  O        23.3714444989       19.0576261597       18.5088398923
  O        19.4628262620       21.7727658264       20.6596915598
  O        20.4305993506       15.8901529274       19.6479422073
  O        21.3653302204       22.8088063629       23.4322137112
  O        22.0097884493       20.9728260701       21.6159092275
  O        18.8894581075       17.8901360132       18.4315732686
      51
 i =        8, time =        8.000, E =      -292.7411396459
  H        17.4381910936       16.9915189475       19.1093066277
  H        20.7770823777       20.7147649454       19.1784520321
  H        21.7702695615       19.6215670862       18.6139005438
  H        19.2738195244       15.5315850109       22.3908540240
  H        18.4036886001       16.7326977973       21.9868663504
  H        19.8337108890       23.3151691472       23.0232140816
  H        18.7634390452       24.3368510966       23.2488154965
  H        16.5956164672       17.0325505492       20.8118250193
  H        17.0013575546       18.1658147392       21.9623438362
  H        23.4594047262       20.9378815795       19.0041864557
  H        22.7033947062       22.3553897918       18.7971169082
  H        20.5277571504       19.4604581912       23.4905378612
  H        20.5002124074       20.9380145713       23.9200919242
  H        20.0367443984       19.9181010871       16.9162642780
  H        18.5708617945       19.9316699922       16.3578302684
  H        22.8977415375       17.0996075560       21.0697752377
  H        22.1441879232       16.4319852237       19.8827720469
  H        20.6621576068       17.4691155572       22.6933036485
  H        21.7487898388       18.4926855784       22.1831205453
  H        18.4314248918       20.1011779577       22.8392123488
  H        17.1434553699       20.8307317062       22.5005441381
  H        23.3744339196       18.2576289870       19.0579207376
  H        23.4012511448       18.7199044353       17.5759145505
  H        19.1775452794       22.5516711852       21.1936825790
  H        18.8700731127       21.0835981164       20.9213099577
  H        19.9235708052       16.0011223736       20.4584478826
  H        19.9772020103       16.3999678998       18.9604016613
  H        21.8407034873       23.6317053186       23.2285913722
  H        21.7240043152       22.1589091276       22.6808285211
  H        21.0188970977       21.1636174058       21.5286854904
  H        22.3728121898       21.3653054362       20.7760087277
  H        18.9854865724       18.0972050852       17.4544118941
  H        19.2576055953       18.6827622717       18.8491318625
  H        16.4685138180       15.7192332738       19.1852516335
  O        16.5243620645       16.6794155066       19.3262145167
  O        20.8438793879       19.9796122060       18.5843173833
  O        19.3813936538       16.5092166304       22.1078726881
  O        18.9464146022       23.6182174658       22.6507275120
  O        16.9701803295       17.1828012378       21.7873135139
  O        23.3348540316       21.8477717484       19.4149130894
  O        19.8920422495       20.2014943229       23.7479763188
  O        19.4572562638       19.4679333158       16.1714523530
  O        22.9819605951       17.0556308734       20.0833895365
  O        21.4258537240       18.1005343821       22.9638414688
  O        17.7363517899       20.0591014214       22.1684374586
  O        23.3723667462       19.0595554417       18.5065668759
  O        19.4619524704       21.7731778187       20.6582531415
  O        20.4329828549       15.8902537331       19.6477037262
  O        21.3689776990       22.8061674082       23.4311632355
  O        22.0020142631       20.9703523562       21.6143797250
  O        18.8925930331       17.8827501117       18.4326328066
      51
 i =        9, time =        9.000, E =      -292.7498164986
  H        17.4416601887       16.9994333674       19.1031218187
  H        20.7743676336       20.7499315756       19.1953780264
  H        21.7689997554       19.6160879575       18.6128152495
  H        19.2702267620       15.5327113999       22.3832247509
  H        18.4056141439       16.7599509395       21.9979620244
  H        19.8675254517       23.3033078547       23.0139205027
  H        18.7786484075       24.3257236798       23.2516402199
  H        16.6109979660       17.0335406307       20.8468952091
  H        17.0098907788       18.1574422395       21.9489846999
  H        23.4638708892       20.9684678942       19.0338481771
  H        22.7187581650       22.3379450860       18.7935058966
  H        20.5181023054       19.4626743059       23.5190423202
  H        20.5006057250       20.9220125319       23.9438954010
  H        20.0575117045       19.9229287839       16.8985000219
  H        18.5645022292       19.9105304783       16.3529979464
  H        22.8960830064       17.1349107190       21.0934472627
  H        22.1495657760       16.4710171958       19.9052452760
  H        20.6619432076       17.4583288984       22.7025616080
  H        21.7841073373       18.4947447277       22.1615088633
  H        18.4563337450       20.1232571407       22.8457903675
  H        17.1221085627       20.8100531377       22.4746691472
  H        23.4098636771       18.2422545399       19.0360653804
  H        23.3969225327       18.7318343924       17.5737060059
  H        19.1589462243       22.5255656733       21.1573740737
  H        18.8682496834       21.0657447974       20.9117821145
  H        19.9237280168       16.0045575965       20.4859476442
  H        19.9377669183       16.4211323047       18.9697337760
  H        21.8317710219       23.6492413705       23.2597051285
  H        21.7183153375       22.1382422303       22.6921359833
  H        21.0275497251       21.1618112699       21.5397567533
  H        22.3626268691       21.3610723506       20.7811127881
  H        18.9933611817       18.1014476868       17.4576343020
  H        19.2693130912       18.7012028941       18.8367969498
  H        16.4385636093       15.7184153892       19.1788411320
  O        16.5240272272       16.6794641437       19.3295493524
  O        20.8412365709       19.9874414267       18.5857147057
  O        19.3825986548       16.5015252138       22.1104079516
  O        18.9528697414       23.6229894247       22.6493241003
  O        16.9671708137       17.1853868067       21.7891766132
  O        23.3298483873       21.8449139436       19.4111585344
  O        19.8948279138       20.2001086351       23.7479529600
  O        19.4534362565       19.4677736900       16.1656407289
  O        22.9772884870       17.0534897599       20.0816689588