      42
 i =        1, time =        1.000, E =      -241.0591483948
  H        17.6197231260       17.5821506418       19.0482608697
  H        18.6005646647       19.5636264735       19.5099510844
  H        19.2586188748       19.4356542163       18.0071618054
  H        19.3248892947       18.3006583504       22.7355654714
  H        19.0950185145       19.4304091589       21.7536561480
  H        17.7880337382       23.7501248651       19.6310265284
  H        19.0082583630       22.8310206207       19.6655114058
  H        16.6520417235       17.6473764592       20.8863689893
  H        16.8307599096       17.8456723090       22.4740980922
  H        21.2074035685       22.9266981587       18.7482671695
  H        20.6886456995       21.4814729812       18.4582882193
  H        18.0018978259       20.6857722779       24.8682371683
  H        16.7382033357       20.4557902719       25.9356171115
  H        18.4856639872       20.7928089892       15.0204976048
  H        19.1539299217       19.9204943403       14.0297341883
  H        23.4493806032       18.1788004929       17.7624446057
  H        22.0467912215       17.6176983357       18.0851564817
  H        18.7368784506       21.7076844583       22.7873754683
  H        19.6444296432       20.6506221568       23.3152615244
  H        17.5228944722       18.5143105367       24.6609985781
  H        17.7899684447       17.0524796494       24.6024027120
  H        21.6125930868       19.5262201746       17.3576170156
  H        20.8673457754       20.3167009174       16.1966772146
  H        17.6255689303       21.1161923282       20.5098553492
  H        17.1923261066       19.6449983801       21.2040989069
  H        20.8923473126       17.9044459358       20.4238530684
  H        19.8600701122       17.9731690666       19.4246649953
  H        17.5320754663       16.2699424347       19.8142647234
  O        16.9947766391       16.9406985747       19.4525955049
  O        18.7329343289       19.0077807810       18.6858481909
  O        19.7964017336       18.7507046909       22.0204172890
  O        18.0313266396       22.8144599606       19.8550429621
  O        16.5709543140       18.3125083957       21.6074634898
  O        20.5134648360       22.2821694883       18.9989612856
  O        17.6060819428       20.0606791287       25.6214061648
  O        19.4006056039       20.5497561787       14.7770242732
  O        22.4880742748       18.1805750388       17.3355366113
  O        18.9490760108       21.2717530933       23.6245192441
  O        17.7074934720       17.7915857754       23.9840012516
  O        20.8657066280       20.2141338942       17.1881617271
  O        17.9594164494       20.2602854572       20.8339482108
  O        20.6995298578       17.4727834132       19.5377580360
      42
 i =        2, time =        2.000, E =      -241.0596693839
  H        17.6175122784       17.5810301014       19.0371073145
  H        18.6031376396       19.5622442455       19.5065546940
  H        19.2441964700       19.4194193927       17.9983074185
  H        19.3181066894       18.2843144313       22.7288375402
  H        19.1140191726       19.4311646217       21.7156089779
  H        17.7940138482       23.7662813288       19.6336199827
  H        18.9827123197       22.8188489903       19.6566407726
  H        16.6635913099       17.6361385772       20.8798110293
  H        16.8388689029       17.8574201108       22.4610555439
  H        21.2268300810       22.9071073052       18.7658638662
  H        20.6988407566       21.5171517067       18.4683310606
  H        17.9928974033       20.6751137256       24.8892907431
  H        16.7308237044       20.4482079246       25.8991804865
  H        18.4712354962       20.7841106119       15.0255228238
  H        19.1871017890       19.9275575161       14.0332857557
  H        23.4503636900       18.1756188874       17.7658344631
  H        22.0473515231       17.6290367925       18.0958573957
  H        18.7357809035       21.7061497912       22.7734437615
  H        19.6368948292       20.6592589725       23.3360358415
  H        17.5339713084       18.5036624779       24.6557540564
  H        17.7902017590       17.0458324828       24.5963853886
  H        21.6249934286       19.5149097175       17.3693382109
  H        20.8471476729       20.3338290072       16.1795902931
  H        17.6268038517       21.1113063827       20.5307250141
  H        17.1892779595       19.6600171015       21.2190087878
  H        20.9188674700       17.9095703333       20.4497933366
  H        19.8615232666       17.9795186403       19.4106911172
  H        17.5737058577       16.2481609984       19.7875391462
  O        16.9972737917       16.9463006041       19.4605170316
  O        18.7326444928       19.0033966374       18.6838470210
  O        19.8001235169       18.7449778587       22.0226731586
  O        18.0299054742       22.8217358472       19.8513866913
  O        16.5683012526       18.3107729478       21.6067980369
  O        20.5115697316       22.2757045651       18.9973774790
  O        17.6029356720       20.0562261456       25.6277929222
  O        19.3987457879       20.5497113492       14.7693978477
  O        22.4927924068       18.1786816896       17.3323816015
  O        18.9515301627       21.2806186322       23.6221201006
  O        17.7062141572       17.7959165252       23.9921616004
  O        20.8592379649       20.2163377480       17.1837357267
  O        17.9596413213       20.2536618806       20.8338170038
  O        20.6989022203       17.4781809686       19.5416637932
      42
 i =        3, time =        3.000, E =      -241.0645255248
  H        17.6188560024       17.5851271596       19.0224220462
  H        18.6036305690       19.5659776125       19.5010437538
  H        19.2419037180       19.4139914931       17.9785823213
  H        19.3079546016       18.2640792647       22.7267410697
  H        19.1391119889       19.4261716856       21.6776289584
  H        17.7992352569       23.7729218428       19.6388817774
  H        18.9678821151       22.8016433111       19.6437224697
  H        16.6749299070       17.6257583617       20.8686217303
  H        16.8459450164       17.8747048627       22.4439318011
  H        21.2443776695       22.8853944438       18.7842023160
  H        20.7123653666       21.5316202745       18.4609656491
  H        17.9784138927       20.6572107186       24.9191187855
  H        16.7308375463       20.4389916224       25.8592998226
  H        18.4623969017       20.7762911769       15.0329739819
  H        19.2244441636       19.9356658941       14.0385117863
  H        23.4303037415       18.1750492687       17.7558087626
  H        22.0455721874       17.6495698687       18.0966180213
  H        18.7308844335       21.7062980306       22.7567085602
  H        19.6349192002       20.6603765630       23.3558566210
  H        17.5443304388       18.5042961459       24.6528951053
  H        17.7917278647       17.0317501276       24.5912750393
  H        21.6262046264       19.5115027856       17.3758169940
  H        20.8244498218       20.3492626063       16.1746630494
  H        17.6258521111       21.1159400600       20.5493984329
  H        17.1913206751       19.6741878415       21.2300874320
  H        20.9430097060       17.9053899394       20.4632310025
  H        19.8581429167       17.9881531115       19.3879764041
  H        17.6208963408       16.2202615969       19.7613835952
  O        16.9994026585       16.9517971629       19.4683254355
  O        18.7313270989       18.9979472697       18.6825676884
  O        19.8039189045       18.7398266282       22.0248032067
  O        18.0277132816       22.8298469889       19.8478065014
  O        16.5654258533       18.3090717149       21.6067702849
  O        20.5096826797       22.2708084719       18.9967806475
  O        17.5996761994       20.0522798968       25.6337674386
  O        19.3963122054       20.5495468780       14.7614516935
  O        22.4989552099       18.1758647683       17.3308254124
  O        18.9539782246       21.2899220191       23.6198977948
  O        17.7048836569       17.7999576090       24.0002087034
  O        20.8533675252       20.2181820172       17.1789998158
  O        17.9597654340       20.2468460597       20.8340756805
  O        20.6991350708       17.4838467059       19.5467638164
      42
 i =        4, time =        4.000, E =      -241.0713358177
  H        17.6214266653       17.5929120633       19.0058437544
  H        18.6018920544       19.5743018764       19.4929838869
  H        19.2483582045       19.4168077701       17.9527195159
  H        19.2959911853       18.2437906787       22.7249578504
  H        19.1688983533       19.4149889505       21.6417805563
  H        17.8037542713       23.7718872293       19.6462913211
  H        18.9682383269       22.7800149320       19.6256945975
  H        16.6857862620       17.6197136744       20.8565911445
  H        16.8537795853       17.8936167961       22.4292632581
  H        21.2599174178       22.8631326229       18.8040210558
  H        20.7294022280       21.5200439512       18.4334112120
  H        17.9628984653       20.6369921294       24.9512074679
  H        16.7313907373       20.4302575637       25.8189916255
  H        18.4625175095       20.7675363752       15.0404923788
  H        19.2625138629       19.9384813410       14.0378369937
  H        23.3972449773       18.1771219771       17.7355950158
  H        22.0404528399       17.6773549794       18.0889523647
  H        18.7242094190       21.7053706033       22.7413452388
  H        19.6396125558       20.6531635795       23.3733829937
  H        17.5533155983       18.5185239159       24.6563319751
  H        17.7939859290       17.0137404075       24.5856429732
  H        21.6145225716       19.5177122177       17.3749820934
  H        20.8002953140       20.3619962293       16.1823982005
  H        17.6239028146       21.1282276410       20.5663367192
  H        17.1971049149       19.6854173220       21.2378393705
  H        20.9615793905       17.8918284825       20.4610730108
  H        19.8534778910       17.9981936244       19.3593193934
  H        17.6620643316       16.1995571382       19.7306523631
  O        17.0020305058       16.9564384207       19.4762394713
  O        18.7291972699       18.9916290650       18.6817419933
  O        19.8077688132       18.7350080298       22.0269829354
  O        18.0244795174       22.8386457102       19.8444056284
  O        16.5622391338       18.3074229621       21.6067525050
  O        20.5077755813       22.2676475833       18.9973036924
  O        17.5964548256       20.0484044147       25.6395523613
  O        19.3933072956       20.5497878416       14.7537562721
  O        22.5060959347       18.1722176524       17.3306009762
  O        18.9562594246       21.2998573491       23.6176617888
  O        17.7036253176       17.8033283418       24.0079552355
  O        20.8481558762       20.2195901183       17.1740084807
  O        17.9598159266       20.2400849679       20.8346098818
  O        20.7002087058       17.4898492059       19.5530604815
      42
 i =        5, time =        5.000, E =      -241.0720053772
  H        17.6219354361       17.6018458051       18.9899387135
  H        18.5976402293       19.5864092790       19.4822448792
  H        19.2572196434       19.4227447713       17.9295335724
  H        19.2840453719       18.2273017549       22.7192134255
  H        19.2006415228       19.3986655714       21.6091562581
  H        17.8070324622       23.7686553570       19.6545232685
  H        18.9798395466       22.7550014505       19.6031744121
  H        16.6959410777       17.6204216379       20.8469582030
  H        16.8646167191       17.9100706201       22.4238566691
  H        21.2741706918       22.8422122517       18.8257182778
  H        20.7459429134       21.4936131852       18.3940615563
  H        17.9527430989       20.6218636262       24.9761519184
  H        16.7251902970       20.4240029557       25.7808307399
  H        18.4713528374       20.7567997913       15.0464493421
  H        19.2989065076       19.9319055652       14.0264640207
  H        23.3674959030       18.1817663226       17.7123639207
  H        22.0302006881       17.7089705285       18.0765767556
  H        18.7177299225       21.7009869556       22.7307217129
  H        19.6478351727       20.6406741540       23.3885786657
  H        17.5614620915       18.5435492206       24.6658952937
  H        17.7962184538       16.9967048476       24.5777579334
  H        21.5913238861       19.5325419152       17.3660281043
  H        20.7753305094       20.3720334683       16.1983696854
  H        17.6231830309       21.1431002652       20.5828922930
  H        17.2044378646       19.6915226051       21.2432300094
  H        20.9732488660       17.8712623644       20.4457116338
  H        19.8518418636       18.0081161750       19.3279502904
  H        17.6896250550       16.1940780465       19.6937428516
  O        17.0058251872       16.9598833781       19.4842235338
  O        18.7266696581       18.9848201983       18.6808322057
  O        19.8117094017       18.7301930206       22.0294535146
  O        18.0205147838       22.8477265546       19.8412256557
  O        16.5586236754       18.3059074103       21.6061516461
  O        20.5060277752       22.2653656765       18.9983862890
  O        17.5933316348       20.0440002338       25.6455599756
  O        19.3898934317       20.5507724394       14.7466786025
  O        22.5132583485       18.1679444340       17.3310447779
  O        18.9584583836       21.3103092704       23.6152016127
  O        17.7024982304       17.8058984045       24.0155099494
  O        20.8434935104       20.2206011407       17.1690459436
  O        17.9598101626       20.2338162161       20.8352074178
  O        20.7019323969       17.4961415059       19.5601769783
      42
 i =        6, time =        6.000, E =      -241.0687882406
  H        17.6173618569       17.6097110814       18.9771822645
  H        18.5905519180       19.6011281665       19.4688775718
  H        19.2628864040       19.4271778257       17.9165643935
  H        19.2731293084       18.2171376044       22.7069959351
  H        19.2308836637       19.3794025418       21.5797088736
  H        17.8083695573       23.7704088858       19.6619351578
  H        18.9934227106       22.7285793275       19.5781684189
  H        16.7053388280       17.6286465492       20.8417647175
  H        16.8796235208       17.9220295123       22.4305857374
  H        21.2879970577       22.8240815799       18.8494872518
  H        20.7569134082       21.4673185946       18.3543963133
  H        17.9536194365       20.6181544055       24.9860829099
  H        16.7088792487       20.4205051539       25.7459791869
  H        18.4847384825       20.7438492262       15.0503551940
  H        19.3325736454       19.9176709748       14.0065412040
  H        23.3618546745       18.1888925324       17.6956757834
  H        22.0129537108       17.7405100805       18.0645440744
  H        18.7126972808       21.6919940174       22.7259241434
  H        19.6542949616       20.6280316195       23.4020023627
  H        17.5699941423       18.5727082777       24.6781600161
  H        17.7977789394       16.9846763356       24.5668538996
  H        21.5612438978       19.5521473860       17.3495299286
  H        20.7496420336       20.3803056198       16.2144269041
  H        17.6257778152       21.1550959205       20.6003164134
  H        17.2108843891       19.6906059172       21.2473461202
  H        20.9790263797       17.8483701108       20.4253865534
  H        19.8567079475       18.0165994627       19.2971923830
  H        17.7007039979       16.2060316082       19.6516777505
  O        17.0111499722       16.9621353397       19.4920934263
  O        18.7241253859       18.9779000657       18.6793715830
  O        19.8158611344       18.7250708231       22.0324152288
  O        18.0164859652       22.8565087049       19.8382333182
  O        16.5545215588       18.3045744299       21.6047167726
  O        20.5046713030       22.2629003325       18.9992808801
  O        17.5901698706       20.0386370249       25.6521726113
  O        19.3863841865       20.5524171879       14.7401105629
  O        22.5191945733       18.1633002418       17.3312446902
  O        18.9608026191       21.3209323250       23.6124283439
  O        17.7014988295       17.8078448303       24.0231445999
  O        20.8391032540       20.2213911245       17.1645518054
  O        17.9597892725       20.2284746324       20.8356521356
  O        20.7040126896       17.5025207995       19.5673689978
      42
 i =        7, time =        7.000, E =      -241.0681737149
  H        17.6057701282       17.6154319097       18.9691832199
  H        18.5803856439       19.6168925157       19.4529601526
  H        19.2619909013       19.4272635316       17.9177096761
  H        19.2629691835       18.2138495228       22.6881699170
  H        19.2563976082       19.3597387564       21.5525005643
  H        17.8077085560       23.7821057134       19.6673820068
  H        19.0002062191       22.7034262440       19.5529418625
  H        16.7141590092       17.6434021080       20.8415652711
  H        16.8976931983       17.9305236871       22.4460272241
  H        21.3016386729       22.8092689726       18.8754719863
  H        20.7590228760       21.4512536159       18.3225493015
  H        17.9665679569       20.6258257394       24.9809412262
  H        16.6854274399       20.4177233796       25.7142042268
  H        18.4956676305       20.7290175859       15.0529015177
  H        19.3628309907       19.9021234087       13.9856377953
  H        23.3894137270       18.1981611844       17.6905536756
  H        21.9881712059       17.7689888289       18.0574497930
  H        18.7093010862       21.6786591487       22.7253624063
  H        19.6544411861       20.6197879310       23.4140517719
  H        17.5799877011       18.5988729901       24.6892412697
  H        17.7983389533       16.9793292331       24.5536601271
  H        21.5323806775       19.5695690165       17.3273987011
  H        20.7227542120       20.3881652529       16.2219167412
  H        17.6327917309       21.1605263759       20.6192189249
  H        17.2146691522       19.6815566274       21.2508843496
  H        20.9820968778       17.8294266485       20.4132354919
  H        19.8698177057       18.0230293792       19.2701028996
  H        17.6970055300       16.2322011296       19.6070107916
  O        17.0180227827       16.9634508945       19.4996217594
  O        18.7218128267       18.9711706048       18.6771144792
  O        19.8203996970       18.7194472491       22.0359591658
  O        18.0129922952       22.8645026212       19.8353486196
  O        16.5500041483       18.3033930905       21.6027018754
  O        20.5038626748       22.2595529179       18.9994536342
  O        17.5867333747       20.0324157874       25.6593444968
  O        19.3832435960       20.5543026869       14.7335496735
  O        22.5233130753       18.1585080291       17.3305905483
  O        18.9635140163       21.3313530808       23.6094434965
  O        17.7005938007       17.8095257297       24.0310807268
  O        20.8345282621       20.2223239427       17.1609305800
  O        17.9598088862       20.2243337452       20.8358011483
  O        20.7061160451       17.5086436202       19.5736217641
      42
 i =        8, time =        8.000, E =      -241.0685181889
  H        17.5866564345       17.6194323941       18.9662653048
  H        18.5670765850       19.6318496888       19.4345527981
  H        19.2537153568       19.4222093649       17.9328286684
  H        19.2519422624       18.2159497698       22.6648459245
  H        19.2753021064       19.3414312174       21.5265219686
  H        17.8062851850       23.8029081245       19.6708264853
  H        18.9949043412       22.6822402573       19.5292321440
  H        16.7228889728       17.6620738084       20.8452515513
  H        16.9160300175       17.9382656679       22.4629111949
  H        21.3144112504       22.7973082453       18.9037984455
  H        20.7511420176       21.4501376211       18.3026768569
  H        17.9875262391       20.6383129983       24.9684605497
  H        16.6618212834       20.4125020598       25.6848292915
  H        18.4974388761       20.7125584994       15.0551869193
  H        19.3886906021       19.8917456850       13.9714534516
  H        23.4361586816       18.2082928292       17.6930194927
  H        21.9579769366       17.7934750095       18.0573912115
  H        18.7066985338       21.6623314640       22.7253169629
  H        19.6461535322       20.6182779181       23.4247123932
  H        17.5919363934       18.6169147624       24.6967041567
  H        17.7979518521       16.9795596410       24.5402965421
  H        21.5146075889       19.5761602891       17.3020737910
  H        20.6941323280       20.3963969802       16.2166645633
  H        17.6440597498       21.1584174705       20.6395091901
  H        17.2154071754       19.6644743660       21.2537359821
  H        20.9856795337       17.8196399761       20.4210577593
  H        19.8908484431       18.0277281090       19.2490430513
  H        17.6853836007       16.2636259458       19.5628730201
  O        17.0260571438       16.9643365490       19.5066125969
  O        18.7198199514       18.9648257555       18.6740552570
  O        19.8254938527       18.7133277567       22.0400151180
  O        18.0103218291       22.8715822427       19.8324625722
  O        16.5452321411       18.3023355868       21.6007128646
  O        20.5036846661       22.2550234392       18.9986235458
  O        17.5828619808       20.0259275217       25.6665477479
  O        19.3809296943       20.5559929719       14.7264750020
  O        22.5263285680       18.1537233919       17.3291952618
  O        18.9667334788       21.3413305945       23.6065145152
  O        17.6997395351       17.8113488429       24.0393575024
  O        20.8292056154       20.2239172110       17.1582792943
  O        17.9599050571       20.2214187984       20.8356248805
  O        20.7080268754       17.5141735163       19.5780650448
      42
 i =        9, time =        9.000, E =      -241.0686033062
  H        17.5610282092       17.6236802212       18.9673355900
  H        18.5507588719       19.6441177877       19.4138086047
  H        19.2400996584       19.4135131667       17.9576222866
  H        19.2374413643       18.2204639602       22.6406074506
  H        19.2876877070       19.3247172039       21.5015974270
  H        17.8063257058       23.8267295970       19.6731060979
  H        18.9760487230       22.6671577731       19.5079883058
  H        16.7323642040       17.6808182688       20.8501644329
  H        16.9317235500       17.9476536704       22.4743880915
  H        21.3249937660       22.7870211206       18.9344498657
  H        20.7338533838       21.4648647929       18.2959991474
  H        18.0106824837       20.6477632547       24.9579461268
  H        16.6447978733       20.4022707671       25.6574914781
  H        18.4878788103       20.6939681809       15.0572721992
  H        19.4090659131       19.8900541987       13.9682272445
  H        23.4795306188       18.2173568288       17.6962030511
  H        21.9270939411       17.8149211815       18.0633109965
  H        18.7034641686       21.6446728936       22.7215164542
  H        19.6302210790       20.6230259895       23.4336115335
  H        17.6057672596       18.6243595297       24.6999672835
  H        17.7969854064       16.9820909575       24.5297014051
  H        21.5139631844       19.5667481916       17.2747957935
  H        20.6639528643       20.4044892563       16.2017093364
  H        17.6582004607       21.1506941307       20.6605534159
  H        17.2141199027       19.6407150123       21.2549990733
  H        20.9894294205       17.8196086301       20.4493220805
  H        19.9173472289       18.0320875149       19.2352637884
  H        17.6775034017       16.2863789112       19.5217757735
  O        17.0344668704       16.9655062525       19.5130045831
  O        18.7180484918       18.9589140635       18.6704262059
  O        19.8312526544       18.7069369500       22.0443462775
  O        18.0084456103       22.8779915459       19.8294737924
  O        16.5403469302       18.3014764112       21.5994183966
  O        20.5041642087       22.2492966912       18.9967081208
  O        17.5785251753       20.0198421443       25.6731393706
  O        19.3796292015       20.5572773747       14.7186646362
  O        22.5293527040       18.1490306590       17.3275672551
  O        18.9704809748       21.3508360970       23.6039707895
  O        17.6988876582       17.8136870878       24.0478496389
  O        20.8227676296       20.2265552929       17.1563191747
  O        17.9600853892       20.2194884028       20.8352026438
  O        20.7098861222       17.5189858062       19.5806106382
      42
 i =       10, time =       10.000, E =      -241.0694945131
  H        17.5312408988       17.6312430358       18.9700979283
  H        18.5317027327       19.6521595903       19.3912074083
  H        19.2262639058       19.4051708357       17.9837492037
  H        19.2170409030       18.2242626986       22.6189419554
  H        19.2953369521       19.3085598111       21.4786171786
  H        17.8100100014       23.8462620657       19.6751707615
  H        18.9456237574       22.6593282663       19.4892437805
  H        16.7436256031       17.6955181208       20.8529625491
  H        16.9428033113       17.9598373407       22.4764254488
  H        21.3320866727       22.7769812644       18.9671020196
  H        20.7091469262       21.4931800726       18.3010713913
  H        18.0311897747       20.6487419167       24.9559901162
  H        16.6380786091       20.3859752802       25.6321921154
  H        18.4709455934       20.6720591417       15.0574578318
  H        19.4232778577       19.8966135796       13.9756509022
  H        23.5036674656       18.2238061832       17.6958088442
  H        21.9012315482       17.8349359477       18.0722750194
  H        18.6984043426       21.6267348903       22.7114938468
  H        19.6100971083       20.6307812860       23.4401250867
  H        17.6210319485       18.6211916981       24.7000717510
  H        17.7959225909       16.9831510650       24.5246135038
  H        21.5274850314       19.5446033389       17.2448213116
  H        20.6332453157       20.4109947180       16.1847033699
  H        17.6729159990       21.1417843847       20.6814124545
  H        17.2125459771       19.6125133978       21.2534349780
  H        20.9891957894       17.8256483042       20.4864755622
  H        19.9450246543       18.0385354971       19.2286463683
  H        17.6841677366       16.2881822201       19.4842140595
  O        17.0424070483       16.9675091196       19.5189143621
  O        18.7162002692       18.9533011648       18.6666837114
  O        19.8376928886       18.7006068808       22.0486496051
  O        18.0071065951       22.8841179794       19.8263441008
  O        16.5354203527       18.3009865542       21.5993290604
  O        20.5052528554       22.2425827872       18.9938167654
  O        17.5738179497       20.0146144065       25.6786619440
  O        19.3791307939       20.5582357248       14.7103065801
  O        22.5330288768       18.1444564004       17.3261910464
  O        18.9746203905       21.3600946850       23.6020482207
  O        17.6979967668       17.8167813415       24.0563187688
  O        20.8153561773       20.2301463489       17.1546056935
  O        17.9603530024       20.2180831686       20.8346782528
  O        20.7121956996       17.5231495281       19.5820029147
      42
 i =       11, time =       11.000, E =      -241.0706099518
  H        17.5003558843       17.6450893513       18.9717951897
  H        18.5101980135       19.6551952882       19.3677842987
  H        19.2191832793       19.4027092051       18.0009052536
  H        19.1903489148       18.2257457641       22.6013819159
  H        19.3007996178       19.2916101324       21.4589966464
  H        17.8185974995       23.8566271505       19.6775506604
  H        18.9089551237       22.6585300764       19.4718656776
  H        16.7574610216       17.7032818206       20.8513740063
  H        16.9485894493       17.9746653322       22.4683143752
  H        21.3350558830       22.7659534883       19.0011049121
  H        20.6803719867       21.5291084102       18.3128922710
  H        18.0459566081       20.6388155520       24.9658435711
  H        16.6413690522       20.3642643803       25.6090141002
  H        18.4539036960       20.6457960841       15.0532105509
  H        19.4314184520       19.9070619461       13.9889704870
  H        23.5021646276       18.2269390506       17.6905953143
  H        21.8852677987       17.8547195073       18.0812559680
  H        18.6912872059       21.6085027325       22.6962814463
  H        19.5908292137       20.6363900213       23.4435376259
  H        17.6371018512       18.6096175846       24.6994554220
  H        17.7950838724       16.9807655713       24.5263675470
  H        21.5459210471       19.5189882135       17.2109208237
  H        20.6033433994       20.4144951144       16.1732251331
  H        17.6856328995       21.1371613069       20.7011858813
  H        17.2123093358       19.5824811475       21.2480352325
  H        20.9806039937       17.8333904469       20.5187362966
  H        19.9688212260       18.0499753598       19.2279088103
  H        17.7055120358       16.2692364111       19.4492679289
  O        17.0496315444       16.9701305741       19.5245405164