      27
 i =        1, time =        1.000, E =      -154.9409223368
  H        16.4024490625       17.9102748405       17.8512397393
  H        21.0508106049       20.6899946625       17.7399070869
  H        20.0469356140       19.5788562657       17.5476408927
  H        22.9502436851       17.7686557411       20.1851900950
  H        21.6786924951       17.6343949879       19.2118527491
  H        17.9337713961       22.4116176512       21.8381139832
  H        19.2719338201       22.4822931119       22.6275639930
  H        18.9785575659       17.3445316773       18.6965224669
  H        19.8889408575       18.1862306682       19.6611038886
  H        22.4038347278       21.5568662808       20.1679264244
  H        21.4445344983       22.7019093198       20.4333046399
  H        19.8341805659       20.1690192462       21.5101681247
  H        20.9801771792       20.1846984180       20.5850412518
  H        18.3895641524       21.0121336356       18.3463220596
  H        17.7145163527       21.4731029384       19.5913631751
  H        23.5929437163       21.0020416493       18.2378937642
  H        22.9476973618       19.6031491658       18.8754533602
  H        16.8796640332       19.0580079878       18.8828594683
  O        16.7487697485       18.0646513816       18.7191042889
  O        20.1884234832       20.5749405580       17.3536116772
  O        22.6369297046       18.0459596239       19.2770122709
  O        18.6155613427       21.8997260297       22.2535921112
  O        19.8642222302       17.6774790388       18.7789682188
  O        21.9300689396       21.9910831414       20.9204460803
  O        20.2504660591       19.5765951331       20.8118768277
  O        17.4851985144       21.0218399483       18.8267771623
  O        22.8751092959       20.6581954042       18.7839189447
      27
 i =        2, time =        2.000, E =      -154.9457333381
  H        16.4000956484       17.9159686610       17.8319447507
  H        21.0426523066       20.6916403249       17.7609989948
  H        20.0252643829       19.5994853634       17.5379008102
  H        22.9438142744       17.7943111894       20.1901856260
  H        21.6895119465       17.6553732059       19.2272048727
  H        17.9626053746       22.4427409295       21.8574895391
  H        19.2866558082       22.4810630652       22.6202282878
  H        18.9929093291       17.3529729632       18.6869162959
  H        19.8587577435       18.1635248766       19.6505503730
  H        22.3777576423       21.5690061129       20.1593752263
  H        21.4354386248       22.7323366423       20.4450402298
  H        19.8330317891       20.1513118465       21.5000682114
  H        20.9565576812       20.1837069187       20.5857039767
  H        18.3793311296       21.0107736716       18.3223058881
  H        17.7151758960       21.4762778395       19.6261211421
  H        23.5900442604       20.9915154355       18.2273673754
  H        22.9501623237       19.6124701640       18.8728982649
  H        16.8465729114       19.0094180684       18.8709042961
  O        16.7485079566       18.0626403024       18.7170235508
  O        20.1892444662       20.5734996323       17.3448380854
  O        22.6375851217       18.0506723910       19.2779006276
  O        18.6084790184       21.8960732196       22.2519901823
  O        19.8683418776       17.6756050918       18.7817204894
  O        21.9321983739       21.9901869413       20.9205663410
  O        20.2548903112       19.5720635083       20.8180817132
  O        17.4877404060       21.0286517272       18.8282194844
  O        22.8746388371       20.6564962771       18.7856485399
      27
 i =        3, time =        3.000, E =      -154.9489722485
  H        16.3952277232       17.9249915539       17.8070369819
  H        21.0482167490       20.6965016057       17.7888416210
  H        20.0042773367       19.6272234530       17.5267181348
  H        22.9348971317       17.8221190113       20.1880833788
  H        21.7114880454       17.6817488190       19.2396100834
  H        17.9757198525       22.4891135759       21.8682835198
  H        19.3036017201       22.4835804856       22.6136403272
  H        18.9838943606       17.3538338238       18.6751371080
  H        19.8254036805       18.1434944834       19.6380815953
  H        22.3580396881       21.5765473693       20.1442000967
  H        21.4324706870       22.7529013054       20.4642114785
  H        19.8275542973       20.1295467109       21.4888086864
  H        20.9435711764       20.1897609400       20.5812661644
  H        18.3589513294       21.0091037566       18.3042269931
  H        17.7210525473       21.4867935982       19.6770867290
  H        23.5910633160       20.9800995050       18.2142458319
  H        22.9508149221       19.6335106962       18.8696308298
  H        16.8141345624       18.9728030447       18.8566281720
  O        16.7486408736       18.0596918323       18.7153387725
  O        20.1890532126       20.5712630593       17.3357286504
  O        22.6377273018       18.0548643643       19.2792072038
  O        18.6022838683       21.8911477186       22.2507820701
  O        19.8741006731       17.6743949474       18.7848360650
  O        21.9336180193       21.9901947912       20.9206827179
  O        20.2588501227       19.5672221096       20.8248036739
  O        17.4907727093       21.0347612617       18.8280940584
  O        22.8739083548       20.6539754971       18.7876080567
      27
 i =        4, time =        4.000, E =      -154.9473733138
  H        16.3915181899       17.9374029342       17.7861804885
  H        21.0572503333       20.7023231177       17.8184824407
  H        19.9830642194       19.6519496209       17.5162740600
  H        22.9253679926       17.8507123591       20.1834771433
  H        21.7353741257       17.7096098161       19.2483710231
  H        17.9777519420       22.5458632039       21.8734223163
  H        19.3179932463       22.4835995590       22.6053146757
  H        18.9595459880       17.3495975990       18.6606986249
  H        19.7903483701       18.1307054502       19.6316338728
  H        22.3447779830       21.5795588981       20.1223449469
  H        21.4372508304       22.7610728465       20.4918528679
  H        19.8145757617       20.1083894507       21.4820284477
  H        20.9418530356       20.2037471074       20.5715305603
  H        18.3323093596       21.0083280997       18.2925150699
  H        17.7283272269       21.4933488668       19.7229885831
  H        23.5932184681       20.9671868889       18.2005780509
  H        22.9498558929       19.6598571156       18.8663102169
  H        16.7841852144       18.9699496011       18.8447327516
  O        16.7488263289       18.0544397871       18.7131528342
  O        20.1885666495       20.5689824768       17.3264249778
  O        22.6378233270       18.0588321358       19.2807154019
  O        18.5969853555       21.8856316872       22.2499370831
  O        19.8809012117       17.6733842389       18.7878166424
  O        21.9342130681       21.9912853460       20.9207423829
  O        20.2625336617       19.5616850437       20.8317263002
  O        17.4942617248       21.0407874114       18.8277381674
  O        22.8730802285       20.6511228898       18.7895904843
      27
 i =        5, time =        5.000, E =      -154.9434829454
  H        16.3912769115       17.9524515431       17.7754416240
  H        21.0594101534       20.7065837439       17.8441381702
  H        19.9602039716       19.6634085893       17.5090282555
  H        22.9174503602       17.8785601573       20.1824356005
  H        21.7485430607       17.7339630553       19.2529006257
  H        17.9789062232       22.6013872892       21.8792426133
  H        19.3267384419       22.4767690212       22.5938432230
  H        18.9347530951       17.3453011156       18.6446033526
  H        19.7545025212       18.1277529345       19.6359041994
  H        22.3359877934       21.5802654081       20.0978071105
  H        21.4483099924       22.7590007980       20.5262002040
  H        19.7924767594       20.0911631670       21.4830576900
  H        20.9458593430       20.2216480981       20.5590876699
  H        18.3064033004       21.0091845894       18.2849989770
  H        17.7348615431       21.4890808056       19.7494638325
  H        23.5935267043       20.9522485948       18.1886705325
  H        22.9477875119       19.6814088965       18.8639115638
  H        16.7565101795       19.0016211086       18.8364820797
  O        16.7489443360       18.0469248288       18.7100122678
  O        20.1885379518       20.5674384733       17.3171613643
  O        22.6385256631       18.0629588862       19.2821108928
  O        18.5921371808       21.8805230283       22.2491370483
  O        19.8877497333       17.6720974981       18.7902797963
  O        21.9342022040       21.9932125429       20.9206049304
  O        20.2664049413       19.5554692732       20.8384772005
  O        17.4978673566       21.0470944139       18.8282158128
  O        22.8723169823       20.6486595840       18.7913530871
      27
 i =        6, time =        6.000, E =      -154.9407469645
  H        16.3949433351       17.9687108349       17.7758722519
  H        21.0485844471       20.7074002195       17.8617953030
  H        19.9353915735       19.6581257361       17.5062045388
  H        22.9125339391       17.9046985559       20.1894711871
  H        21.7417795825       17.7513933090       19.2530145940
  H        17.9868151215       22.6449548805       21.8904306838
  H        19.3294993606       22.4613092719       22.5792792138
  H        18.9215737086       17.3448642072       18.6281421046
  H        19.7191731910       18.1334785666       19.6486578370
  H        22.3291137426       21.5816287010       20.0761268186
  H        21.4612715233       22.7535150095       20.5631763541
  H        19.7629602337       20.0777457510       21.4905059374
  H        20.9480354360       20.2376698470       20.5478848832
  H        18.2891147163       21.0118898581       18.2778572261
  H        17.7402088041       21.4718526765       19.7507971738
  H        23.5901973084       20.9353906968       18.1799346660
  H        22.9450432463       19.6877395023       18.8635171903
  H        16.7308181031       19.0464586615       18.8299839189
  O        16.7489950089       18.0386477184       18.7059900180
  O        20.1893732666       20.5669554719       17.3081994686
  O        22.6403278838       18.0675022420       19.2831451513
  O        18.5872824245       21.8766159193       22.2480721635
  O        19.8938008802       17.6703941258       18.7922654919
  O        21.9340321967       21.9953865635       20.9201672567
  O        20.2708202264       19.5489477955       20.8448589348
  O        17.5010915479       21.0537918652       18.8301494017
  O        22.8717098410       20.6472800547       18.7927121731
      27
 i =        7, time =        7.000, E =      -154.9414205367
  H        16.4012642803       17.9844491443       17.7839601613
  H        21.0237546705       20.7039584793       17.8702246849
  H        19.9106782724       19.6422905224       17.5069240390
  H        22.9101875847       17.9290955389       20.2046627561
  H        21.7170322737       17.7626592004       19.2492025702
  H        18.0042939822       22.6702813487       21.9086627493
  H        19.3288718009       22.4378805203       22.5630421776
  H        18.9260840708       17.3499144722       18.6121086188
  H        19.6866942268       18.1440640111       19.6626246948
  H        22.3222620180       21.5860287563       20.0616755694
  H        21.4700383042       22.7545113060       20.5976959427
  H        19.7307018306       20.0651337458       21.4992348772
  H        20.9427626320       20.2475094260       20.5413454014
  H        18.2852591510       21.0163439451       18.2682266744
  H        17.7452565593       21.4433087784       19.7291175562
  H        23.5832945725       20.9174689149       18.1742702444
  H        22.9414324430       19.6746400345       18.8658384059
  H        16.7080481411       19.0824345005       18.8234894966
  O        16.7490006694       18.0311535489       18.7014475443
  O        20.1909995283       20.5672023087       17.2997777553
  O        22.6431397883       18.0724054564       19.2837959422
  O        18.5820815797       21.8742774720       22.2465385113
  O        19.8985166991       17.6684604421       18.7941629800
  O        21.9342228236       21.9970496304       20.9194577924
  O        20.2757949297       19.5426217058       20.8509141817
  O        17.5035581072       21.0607959124       18.8336018452
  O        22.8712650530       20.6472219135       18.7936191384
      27
 i =        8, time =        8.000, E =      -154.9420693333
  H        16.4077604986       17.9979645599       17.7928683614
  H        20.9888650709       20.6966655318       17.8714060227
  H        19.8895092496       19.6265864575       17.5090333784
  H        22.9083758906       17.9523810805       20.2236120919
  H        21.6856862559       17.7715984073       19.2425003244
  H        18.0299128911       22.6761447182       21.9330437251
  H        19.3299397827       22.4089496105       22.5475334857
  H        18.9486061782       17.3598841517       18.5964645824
  H        19.6599078957       18.1555503186       19.6704027166
  H        22.3146377969       21.5946943148       20.0562519729
  H        21.4702329361       22.7695280855       20.6263075900
  H        19.7010398601       20.0498702970       21.5036395139
  H        20.9278909895       20.2497288915       20.5412929485
  H        18.2935094944       21.0224450135       18.2567142038
  H        17.7526280689       21.4087616122       19.6953758347
  H        23.5746141499       20.8998243614       18.1700946152
  H        22.9360089009       19.6474025687       18.8709103557
  H        16.6896080805       19.0967934756       18.8165470169
  O        16.7490260612       18.0253667637       18.6968727463
  O        20.1929426406       20.5674982662       17.2919713790
  O        22.6463801514       18.0773810720       19.2842785807
  O        18.5763022516       21.8734413483       22.2444386031
  O        19.9016992868       17.6666251168       18.7964230040
  O        21.9351161325       21.9976479160       20.9185634911
  O        20.2810628334       19.5368679790       20.8568239779
  O        17.5051823696       21.0678141517       18.8378571961
  O        22.8709167507       20.6480704974       18.7941786867
      27
 i =        9, time =        9.000, E =      -154.9397366266
  H        16.4117352450       18.0078381153       17.7951021149
  H        20.9523408737       20.6870875604       17.8707100917
  H        19.8748246204       19.6198142229       17.5103744307
  H        22.9046826691       17.9752657605       20.2402742626
  H        21.6599998361       17.7820096212       19.2340482342
  H        18.0585435194       22.6668912348       21.9605955901
  H        19.3386248115       22.3773711456       22.5352771847
  H        18.9839116673       17.3722082806       18.5800353012
  H        19.6412005293       18.1653268052       19.6674954420
  H        22.3065373255       21.6076204196       20.0587232517
  H        21.4629899886       22.7973038893       20.6493319012
  H        19.6778451524       20.0298537334       21.5001582345
  H        20.9048127291       20.2460149544       20.5476147329
  H        18.3076891365       21.0301981211       18.2469571680
  H        17.7674305627       21.3766849125       19.6699436739
  H        23.5668114298       20.8837830613       18.1650314282
  H        22.9276677590       19.6163779321       18.8782726154
  H        16.6765897322       19.0849280881       18.8096924056
  O        16.7491618762       18.0216548135       18.6927258131
  O        20.1944850149       20.5672112588       17.2845908319
  O        22.6494302589       18.0821445809       19.2848983056
  O        18.5698855308       21.8736596027       22.2418055314
  O        19.9035452250       17.6652375424       18.7993869725
  O        21.9366293810       21.9972476624       20.9175233601
  O        20.2862444925       19.5317705745       20.8628072513
  O        17.5060386730       21.0743593594       18.8414165601
  O        22.8705479346       20.6490744710       18.7945874226
      27
 i =       10, time =       10.000, E =      -154.9397443903
  H        16.4118243141       18.0130243403       17.7866364586
  H        20.9246890606       20.6774589724       17.8755894525
  H        19.8679091043       19.6261460933       17.5094373536
  H        22.8973965498       17.9981280167       20.2500287449
  H        21.6479484499       17.7960792680       19.2247710268
  H        18.0818769174       22.6531186450       21.9867509916
  H        19.3585040906       22.3444294705       22.5275924450
  H        19.0213425975       17.3826046919       18.5601756821
  H        19.6317709430       18.1724414317       19.6529861005
  H        22.2992109805       21.6236818561       20.0652596228
  H        21.4541730928       22.8285823220       20.6695601477
  H        19.6624411723       20.0048923796       21.4881867826
  H        20.8779455789       20.2410390886       20.5583591446
  H        18.3209164462       21.0395931273       18.2428930961
  H        17.7954374850       21.3542390121       19.6732594695
  H        23.5619781597       20.8701052396       18.1571369244
  H        22.9157954742       19.5909020546       18.8872783022
  H        16.6694380037       19.0485903649       18.8041316236
  O        16.7494457537       18.0199545667       18.6891998568
  O        20.1948924580       20.5659607838       17.2772326817
  O        22.6518851691       18.0865391234       19.2858839959
  O        18.5631172444       21.8741804604       22.2388514017
  O        19.9046737862       17.6646232516       18.8032645174
  O        21.9383077310       21.9964879196       20.9164000768
  O        20.2909676907       19.5270805723       20.8690512936
  O        17.5062069031       21.0800422461       18.8427649470
  O        22.8700480403       20.6495744594       18.7950266894
      27
 i =       11, time =       11.000, E =      -154.9441828455
  H        16.4089607459       18.0128299740       17.7695866153
  H        20.9126052964       20.6696033393       17.8911005847
  H        19.8679859748       19.6445929513       17.5056415305
  H        22.8859314830       18.0209032651       20.2513475689
  H        21.6524790444       17.8143083574       19.2152917650
  H        18.0908591165       22.6493297558       22.0068728044
  H        19.3879389896       22.3089603688       22.5236449872
  H        19.0477352424       17.3863104868       18.5331684702
  H        19.6311649083       18.1776086421       19.6293723032
  H        22.2945504418       21.6410104755       20.0702907405
  H        21.4500659617       22.8530210396       20.6894570563
  H        19.6531354586       19.9766274215       21.4701145012
  H        20.8533292819       20.2413808966       20.5704333896
  H        18.3286418190       21.0504829722       18.2466323303
  H        17.8365030054       21.3403688424       19.7052389816
  H        23.5603788149       20.8586645949       18.1460704811
  H        22.9004898183       19.5768681686       18.8972281491
  H        16.6677396924       18.9966239494       18.8017200839
  O        16.7498178186       18.0197361669       18.6860547276
  O        20.1938078866       20.5637173864       17.2695577680
  O        22.6535780600       18.0905435673       19.2872966262
  O        18.5566479761       21.8741511398       22.2359236668
  O        19.9059541883       17.6650060955       18.8081154571
  O        21.9396172964       21.9961292869       20.9153948310
  O        20.2949791372       19.5222956235       20.8756514383
  O        17.5059893767       21.0849924712       18.8417967233
  O        22.8693868800       20.6491924976       18.7955711992
      27
 i =       12, time =       12.000, E =      -154.9464447787
  H        16.4056714180       18.0070531021       17.7505435402
  H        20.9140126786       20.6640388403       17.9151483227
  H        19.8721745739       19.6689348006       17.4996254272
  H        22.8707741565       18.0431896915       20.2461885076
  H        21.6718312201       17.8357590163       19.2059025886
  H        18.0817685976       22.6644871458       22.0193834095
  H        19.4204873024       22.2687542550       22.5208847359
  H        19.0558710276       17.3810314667       18.4967464704
  H        19.6369837276       18.1833482052       19.6023000578
  H        22.2943585894       21.6578331524       20.0686389787
  H        21.4544579021       22.8641953748       20.7100096681
  H        19.6453125640       19.9481576053       21.4507531931
  H        20.8357095005       20.2524480957       20.5812548793
  H        18.3295451778       21.0625527718       18.2578263424
  H        17.8828309495       21.3281178178       19.7457894167
  H        23.5602916066       20.8485775408       18.1333290404
  H        22.8824702169       19.5768045805       18.9074092724
  H        16.6699666181       18.9472045069       18.8051248353
  O        16.7501865974       18.0198560680       18.6827107403
  O        20.1915663173       20.5608593307       17.2615754148
  O        22.6545656765       18.0942469830       19.2890113476
  O        18.5510926043       21.8731234289       22.2332775389
  O        19.9079816181       17.6663222304       18.8137057781
  O        21.9401816030       21.9966907023       20.9147811509
  O        20.2983057548       19.5168898252       20.8825224529
  O        17.5059568903       21.0897102057       18.8398129919
  O        22.8686339457       20.6478294502       18.7961678854
      27
 i =       13, time =       13.000, E =      -154.9443374166
  H        16.4044879503       17.9963000512       17.7365365952
  H        20.9206062630       20.6602493612       17.9398007277
  H        19.8759918283       19.6886669169       17.4933373564
  H        22.8531641722       18.0644721324       20.2394092769
  H        21.6994972511       17.8582095344       19.1964385882
  H        18.0604869280       22.6935303942       22.0272572557
  H        19.4483698445       22.2227597953       22.5164896638
  H        19.0510841896       17.3692932631       18.4534173793
  H        19.6451303165       18.1937999153       19.5795625010
  H        22.2993145637       21.6734863924       20.0583402078
  H        21.4678701935       22.8611357948       20.7309022190
  H        19.6328919607       19.9229923078       21.4356296359
  H        20.8255711201       20.2746079811       20.5906031725
  H        18.3253421378       21.0753470770       18.2738080269
  H        17.9254275361       21.3120241436       19.7753215409
  H        23.5590688458       20.8386678849       18.1213460103
  H        22.8628642229       19.5903735657       18.9171753031
  H        16.6737349492       18.9245781117       18.8174595685
  O        16.7505171764       18.0187377915       18.6785250246
  O        20.1890010668       20.5580945191       17.2535634541
  O        22.6551539048       18.0978218316       19.2907608618
  O        18.5465544212       21.8714585088       22.2308935859
  O        19.9106529506       17.6680972814       18.8193689806
  O        21.9399026257       21.9982851048       20.9147109675
  O        20.3013336836       19.5106337940       20.8893773712
  O        17.5065556127       21.0945923427       18.8382190572
  O        22.8679040782       20.6456093771       18.7966899035
      27
 i =       14, time =       14.000, E =      -154.9432556851
  H        16.4067785762       17.9820999389       17.7319384560
  H        20.9240832156       20.6574828087       17.9567379154
  H        19.8751278536       19.6933533567       17.4891176322
  H        22.8345106528       18.0843559147       20.2369267011
  H        21.7246487646       17.8784663958       19.1861117741
  H        18.0379447793       22.7231350443       22.0351559980
  H        19.4659020927       22.1719300958       22.5085748848
  H        19.0458122129       17.3567284928       18.4099058705
  H        19.6512400844       18.2129647331       19.5678637775
  H        22.3084403261       21.6886996569       20.0419622159
  H        21.4875672609       22.8486198035       20.7509003779
  H        19.6117642842       19.9030569453       21.4279898827
  H        20.8193080772       20.3026889411       20.6007219388
  H        18.3200855155       21.0883432255       18.2900888880
  H        17.9579876252       21.2900167241       19.7834106543
  H        23.5545476153       20.8279312516       18.1121908471
  H        22.8429416092       19.6144408472       18.9261172423
  H        16.6775656023       18.9404631562       18.8397623344
  O        16.7507960429       18.0155388284       18.6731447042
  O        20.1869342054       20.5561391823       17.2458307647
  O        22.6559106279       18.1014862025       19.2922548301
  O        18.5426934025       21.8699185914       22.2285880551
  O        19.9134359064       17.6696795617       18.8242606296
  O        21.9389977995       22.0005744893       20.9151036512
  O        20.3045728990       19.5037498957       20.8959049626
  O        17.5079057624       21.0998036192       18.8379502748
  O        22.8672825704       20.6428453946       18.7970143643
      27
 i =       15, time =       15.000, E =      -154.9433277318
  H        16.4122615508       17.9665381178       17.7369576643
  H        20.9194424293       20.6551910463       17.9607227208
  H        19.8682426874       19.6799900544       17.4876591708
  H        22.8156320037       18.1026781699       20.2426692462
  H        21.7356718004       17.8933872268       19.1737153797
  H        18.0234282614       22.7419358480       22.0464070489
  H        19.4711672228       22.1188247429       22.4966604184
  H        19.0503818874       17.3486014229       18.3732754633
  H        19.6529335315       18.2413969349       19.5681735124
  H        22.3196336069       21.7048135993       20.0249979435
  H        21.5080709462       22.8366885674       20.7682028828
  H        19.5830166186       19.8872170433       21.4266799096
  H        20.8122477218       20.3294856762       20.6145656408
  H        18.3185349011       21.1010603456       18.3015067874
  H        17.9772730672       21.2623554845       19.7677950133
  H        23.5460089962       20.8157968032       18.1066173184
  H        22.8238092831       19.6428194398       18.9342961369
  H        16.6821507093       18.9798293346       18.8680065338
  O        16.7509836633       18.0110656931       18.6667883551
  O        20.1857857857       20.5552266628       17.2386389041
  O        22.6574950106       18.1054353688       19.2933494077
  O        18.5390411366       21.8690481292       22.2261803402
  O        19.9158198551       17.6706765940       18.8278940531
  O        21.9379343206       22.0028399687       20.9157241799
  O        20.3082597163       19.4967758703       20.9019897958
  O        17.5098854089       21.1053335878       18.8394711958
  O        22.8667811623       20.6400317073       18.7970744351
      27
 i =       16, time =       16.000, E =      -154.9431950259
  H        16.4190132460       17.9516166322       17.7473650475
  H        20.9055593653       20.6531792051       17.9504754513
  H        19.8579236007       19.6556154163       17.4870613197
  H        22.7963118064       18.1194168131       20.2561072267
  H        21.7276226771       17.9016129402       19.1585959726
  H        18.0220904270       22.7444334575       22.0623629765
  H        19.4663468703       22.0668082388       22.4816186185
  H        19.0694012568       17.3479699774       18.3481964137
  H        19.6507431267       18.2748446752       19.5748071658
  H        22.3306980018       21.7227938018       20.0129453736
  H        21.5233008682       22.8370805104       20.7811561219
  H        19.5522983415       19.8721238987       21.4273770251
  H        20.8011962813       20.3492516108       20.6341542558
  H        18.3234014589       21.1131482133       18.3041309670
  H        17.9831076159       21.2306907927       19.7329542663
  H        23.5344704367       20.8021824026       18.1036992224
  H        22.8061160943       19.6666586638       18.9423825919
  H        16.6887320249       19.0181349967       18.8952064030
  O        16.7511175822       18.0067258240       18.6601316699
  O        20.1854701659       20.5549313085       17.2322085422
  O        22.6602185696       18.1097340459       19.2941348603
  O        18.5351379725       21.8689745756       22.2235410818
  O        19.9174882038       17.6711559642       18.8303635987
  O        21.9372259838       22.0042613719       20.9163242400
  O        20.3122352353       19.4902909057       20.9077547444
  O        17.5123096063       21.1110561272       18.8427523749
  O        22.8663342339       20.6378026206       18.7968770550
      27
 i =       17, time =       17.000, E =      -154.9419297730
  H        16.4240263547       17.9387885721       17.7558028606
  H        20.8852332615       20.6517184562       17.9288142937
  H        19.8484800183       19.6315189886       17.4843200219
  H        22.7756410080       18.1345210152       20.2726603385
  H        21.7063777294       17.9043274252       19.1415788345
  H        18.0348130958       22.7312638535       22.0827789115
  H        19.4570457182       22.0191897395       22.4653016775
  H        19.1017628933       17.3552908071       18.3358553006
  H        19.6468542522       18.3067844180       19.5796775238
  H        22.3400991705       21.7427927925       20.0092541690
  H        21.5306957550       22.8552675525       20.7894164494