      57
 i =        1, time =        1.000, E =      -327.1768743136
  H        16.7282459878       17.6218044097       17.0553373292
  H        20.1907026814       20.5023898126       16.5427958036
  H        21.6445517809       20.1511898831       16.9654246649
  H        18.4282766815       16.4873608227       18.6564178492
  H        17.4567985948       16.2636425603       19.8815986109
  H        15.5563571629       24.1607821089       20.3036576646
  H        16.4308957928       23.2857853565       19.3644494191
  H        15.5928991487       16.2758237603       21.6467415611
  H        16.1726539728       17.5675513816       21.1301736121
  H        18.5559953385       22.1229394376       19.0362606457
  H        17.2253221688       21.5281341842       18.8129549367
  H        19.4092347491       18.3694237960       24.2925138607
  H        20.1267373913       19.5446981680       23.4529513321
  H        17.8218552898       20.6881934776       15.7739272201
  H        18.3137611416       21.9751001687       16.1066660639
  H        24.4444605996       17.9319622550       19.6689537017
  H        23.0209006384       17.7356772975       18.9931483385
  H        19.8439741203       16.3339628365       20.5053503084
  H        20.4691501924       15.8195633107       21.7984785838
  H        16.0431806548       22.4925834910       23.0702425920
  H        15.7773494997       22.1742512078       21.4772827294
  H        23.6793870027       19.5205978989       17.7893020168
  H        23.7686133777       20.9307840479       17.1044329274
  H        17.5539647472       19.4062181574       20.3638287448
  H        18.7742243067       19.8948723420       19.5012879056
  H        21.9580399736       15.8740399290       19.3525548780
  H        21.5764364244       16.5702203061       18.0289917453
  H        21.8081939762       20.0303096105       22.6307570195
  H        21.3873457397       21.4660501882       23.0446098836
  H        20.3451760829       20.7354564653       18.6916347040
  H        20.8827465210       20.5103452809       20.1971619804
  H        19.3310501481       17.0554136673       16.8177983158
  H        20.4792765861       18.0968411792       17.0563256321
  H        17.8451849836       18.9276410389       22.3988433444
  H        16.7770902417       19.9555308276       22.3315394974
  H        22.4955112643       18.9341475513       20.6810322092
  H        21.1663590971       18.2422366968       21.1202537148
  H        17.4528395575       18.3974234424       18.2677544922
  O        17.5661545911       17.9251600808       17.3340729157
  O        20.6826685653       20.0212836107       17.2182742333
  O        18.4296921618       16.3367963609       19.6005375421
  O        15.5847189755       23.2447216387       19.9746816401
  O        15.8612640839       16.6996653422       20.8472970074
  O        17.6648269751       22.3650254590       18.6706964146
  O        19.2739509140       18.9627257719       23.5607958372
  O        18.6383150372       21.1238581988       15.7149467753
  O        23.6776777867       18.5011102715       19.2902273592
  O        20.8022000833       16.3441161639       20.9646101598
  O        16.0668910407       21.8210191611       22.3935818900
  O        23.3446345860       20.0181277762       17.0046641106
  O        17.8507561898       19.6101530986       19.3807486608
  O        22.3555878340       16.4470562758       18.6469255895
  O        21.5564216093       20.5604043726       23.4601381279
  O        20.3135471431       21.1623179733       19.6100324823
  O        20.2540210794       17.1055019076       17.0483578761
  O        16.9321822633       19.0132675029       21.9691741533
  O        21.6087818572       19.1175704455       21.1294560284
      57
 i =        2, time =        2.000, E =      -327.1790505808
  H        16.7298054086       17.6074431841       17.0711840175
  H        20.1794804416       20.5043098678       16.5562237898
  H        21.6532641525       20.1411056666       16.9647205037
  H        18.4193955395       16.5047304391       18.6592122316
  H        17.4780373355       16.2492769573       19.8820072829
  H        15.5493380957       24.1674089225       20.3000043116
  H        16.4315007308       23.2637904386       19.3924193135
  H        15.5719096856       16.2831456550       21.6411846775
  H        16.1786764000       17.5734257869       21.1612808835
  H        18.5432130678       22.1408952215       19.0578451620
  H        17.2365291893       21.5217624637       18.8410325674
  H        19.4224261745       18.3629633823       24.3113298748
  H        20.1291151327       19.5425268052       23.4223641503
  H        17.7987181887       20.6721554345       15.8103636541
  H        18.3223662243       21.9572033565       16.0968231999
  H        24.4367971410       17.9203120653       19.6684122511
  H        23.0158845232       17.7615853715       18.9824134196
  H        19.8473683046       16.3289659456       20.4963979220
  H        20.4729167597       15.8066471690       21.7701301817
  H        16.0246624883       22.4847575949       23.1061717503
  H        15.7718891523       22.1813909123       21.4661160782
  H        23.6837478197       19.5127029029       17.7736277209
  H        23.7656796630       20.9517274307       17.0935868436
  H        17.5469814747       19.4241534269       20.3795598325
  H        18.7494924138       19.9053594433       19.4842433579
  H        21.9558510904       15.8516093973       19.3559813754
  H        21.5641603428       16.5900752158       18.0393448652
  H        21.7888332900       20.0258775480       22.6274219817
  H        21.3819411588       21.4577841213       23.0703004138
  H        20.3508951099       20.7652082179       18.6940886128
  H        20.8798140524       20.5114786846       20.1917264568
  H        19.3387172625       17.0792559266       16.7977134607
  H        20.4643014454       18.0956615874       17.0505536319
  H        17.8282032951       18.9197284856       22.3800438483
  H        16.7738576026       19.9485858528       22.3225576491
  H        22.4837356126       18.9358877255       20.6464400687
  H        21.1562262409       18.2436830930       21.1055010822
  H        17.4410507100       18.3980161160       18.2687940192
  O        17.5684934381       17.9273718945       17.3338913928
  O        20.6856607129       20.0231133936       17.2118416077
  O        18.4298864882       16.3394468032       19.5979367777
  O        15.5846587520       23.2479029078       19.9734535108
  O        15.8605895899       16.6955484488       20.8457122386
  O        17.6606786847       22.3628715788       18.6680221674
  O        19.2780826769       18.9613090449       23.5570387308
  O        18.6402138229       21.1220904117       15.7131708097
  O        23.6795770259       18.4991040040       19.2898646720
  O        20.8103125130       16.3472528865       20.9654851735
  O        16.0594053383       21.8221217282       22.3976557662
  O        23.3484440554       20.0112760655       17.0096713370
  O        17.8427799358       19.6143854267       19.3805848283
  O        22.3540800102       16.4472370485       18.6492270957
  O        21.5607000361       20.5597324322       23.4628699785
  O        20.3176216175       21.1562850919       19.6079733655
  O        20.2612455881       17.1123794152       17.0511075255
  O        16.9216032907       19.0122335253       21.9691403621
  O        21.6105192150       19.1176542647       21.1326331940
      57
 i =        3, time =        3.000, E =      -327.1890896222
  H        16.7102376000       17.5860458864       17.0816840118
  H        20.1569043887       20.5117187710       16.5587707717
  H        21.6625458428       20.1293128446       16.9668208393
  H        18.4104310103       16.5266643992       18.6477526667
  H        17.5011859601       16.2363656697       19.8834731546
  H        15.5405563810       24.1746721858       20.2972154139
  H        16.4259357729       23.2371736982       19.4266519733
  H        15.5447050140       16.2812844124       21.6511453438
  H        16.1846484341       17.5826545330       21.1943562071
  H        18.5326224178       22.1624779696       19.0803933485
  H        17.2403019698       21.5006792128       18.8705205173
  H        19.4382160728       18.3579600129       24.3306312936
  H        20.1214460836       19.5336937014       23.3990445384
  H        17.7687547389       20.6427510798       15.8465327499
  H        18.3351449372       21.9473384093       16.0900940327
  H        24.4161344830       17.9199541048       19.6600748729
  H        23.0140484793       17.7854721430       18.9735676257
  H        19.8660268264       16.3276721110       20.4878793410
  H        20.4877388484       15.8033549762       21.7312303697
  H        16.0042936082       22.4809733486       23.1385756424
  H        15.7710512557       22.1910038243       21.4708987606
  H        23.6916614446       19.4995033766       17.7682883065
  H        23.7549482619       20.9519680479       17.0821863418
  H        17.5426559230       19.4446284493       20.3795065620
  H        18.7407681824       19.9209149182       19.4680908354
  H        21.9572028886       15.8378950273       19.3564580237
  H        21.5530172498       16.6088188243       18.0496348105
  H        21.7688091475       20.0235964626       22.6281969312
  H        21.3771106669       21.4430343620       23.1000208832
  H        20.3627516010       20.7927771732       18.6937286851
  H        20.8674305408       20.5197666724       20.1766879326
  H        19.3336435665       17.1044458615       16.7758978962
  H        20.4462376227       18.0921469446       17.0446645620
  H        17.8127560451       18.9056435943       22.3633158677
  H        16.7626230100       19.9385783192       22.3090330862
  H        22.4670163265       18.9386026017       20.6124624639
  H        21.1441113568       18.2397341796       21.0918342457
  H        17.4346004545       18.3955506966       18.2545569863
  O        17.5719243923       17.9303434465       17.3347797632
  O        20.6892228416       20.0243510192       17.2058519168
  O        18.4300194711       16.3416605010       19.5965110655
  O        15.5848848351       23.2512476714       19.9721024795
  O        15.8602322450       16.6917161452       20.8429577433
  O        17.6571158159       22.3613794798       18.6651115220
  O        19.2825470438       18.9603455508       23.5526762564
  O        18.6422484541       21.1206790031       15.7114027744
  O        23.6822329495       18.4966365255       19.2899674889
  O        20.8165785978       16.3496489639       20.9668696737
  O        16.0517814857       21.8227563097       22.4008808975
  O        23.3525011032       20.0061141467       17.0141612603
  O        17.8334373824       19.6181653440       19.3814162677
  O        22.3520886268       16.4468957940       18.6515238817
  O        21.5649962882       20.5591864327       23.4648916554
  O        20.3218217391       21.1498911007       19.6066735222
  O        20.2696651826       17.1196960365       17.0538996035
  O        16.9115598906       19.0119158554       21.9692761523
  O        21.6128372400       19.1180071568       21.1355625011
      57
 i =        4, time =        4.000, E =      -327.1920472007
  H        16.6833117422       17.5624572041       17.0907799391
  H        20.1272490576       20.5220309411       16.5537053605
  H        21.6709376657       20.1165052294       16.9706417390
  H        18.4013195459       16.5519219065       18.6291734483
  H        17.5183920171       16.2242015598       19.8881448027
  H        15.5308215666       24.1807817844       20.2941221317
  H        16.4209270411       23.2076118422       19.4618331757
  H        15.5139605961       16.2741562751       21.6678362146
  H        16.1876885607       17.5869661951       21.2252742367
  H        18.5246364955       22.1876615062       19.1034361572
  H        17.2409561996       21.4729635186       18.8992898613
  H        19.4553679531       18.3607361109       24.3423582993
  H        20.1064487399       19.5195834969       23.3835488561
  H        17.7499851482       20.6108017142       15.8804128466
  H        18.3494148986       21.9508455029       16.0888154822
  H        24.3881379424       17.9264625478       19.6469518501
  H        23.0139142837       17.8047205899       18.9661747855
  H        19.8987061355       16.3305231290       20.4792948150
  H        20.5102961221       15.8038526052       21.6915273367
  H        15.9823526739       22.4755898408       23.1606372758
  H        15.7742149060       22.2033857423       21.4917732919
  H        23.7040567410       19.4815294285       17.7741658311
  H        23.7374093713       20.9315213717       17.0713569346
  H        17.5410081690       19.4668312043       20.3640278333
  H        18.7470120171       19.9411316497       19.4528683247
  H        21.9627269845       15.8343985465       19.3523463081
  H        21.5445884991       16.6254204873       18.0611442790
  H        21.7490805185       20.0234418167       22.6319987328
  H        21.3713897851       21.4302207044       23.1297337974
  H        20.3810396809       20.8155712863       18.6857498880
  H        20.8503541096       20.5301054499       20.1564843518
  H        19.3246261236       17.1294066703       16.7550747169
  H        20.4284803730       18.0927850501       17.0392386237
  H        17.8020604355       18.8856494536       22.3505328677
  H        16.7431784099       19.9298869802       22.2933944673
  H        22.4454292008       18.9425500724       20.5805945397
  H        21.1324668721       18.2345598736       21.0798256624
  H        17.4333628732       18.3915535245       18.2286576208
  O        17.5755822849       17.9336867628       17.3362413171
  O        20.6931973353       20.0251535630       17.2001700250
  O        18.4306062291       16.3435808405       19.5956641830
  O        15.5849328871       23.2547819699       19.9710140926
  O        15.8601739724       16.6884343408       20.8398443646
  O        17.6538506028       22.3600129084       18.6621086264
  O        19.2872185400       18.9593287938       23.5481859024
  O        18.6434606997       21.1186099618       15.7096227561
  O        23.6853862345       18.4941429597       19.2903752821
  O        20.8212646638       16.3516438180       20.9681834829
  O        16.0439854345       21.8232804711       22.4036677775
  O        23.3566587732       20.0026360795       17.0180136409
  O        17.8228152775       19.6215540698       19.3832039560
  O        22.3494860564       16.4459957678       18.6538180372
  O        21.5693591990       20.5582515665       23.4665156861
  O        20.3258284428       21.1436030220       19.6061622985
  O        20.2784808908       17.1271227710       17.0564779633
  O        16.9018659718       19.0120516621       21.9693682040
  O        21.6155821947       19.1183429813       21.1381605689
      57
 i =        5, time =        5.000, E =      -327.1855056821
  H        16.6637243589       17.5424849602       17.1023417508
  H        20.0972686515       20.5305546265       16.5469059148
  H        21.6777720370       20.1034850753       16.9748876495
  H        18.3919209644       16.5782722020       18.6137284848
  H        17.5241159590       16.2121640665       19.8973680151
  H        15.5211499961       24.1845341536       20.2896303574
  H        16.4240629007       23.1765198802       19.4926882064
  H        15.4841344387       16.2671424502       21.6796532351
  H        16.1861071410       17.5813956488       21.2508864665
  H        18.5182875825       22.2162810865       19.1260222496
  H        17.2436755902       21.4481790956       18.9244928232
  H        19.4729596441       18.3741340424       24.3424451992
  H        20.0897026978       19.5038045173       23.3750996955
  H        17.7529294269       20.5841415638       15.9102122634
  H        18.3641526115       21.9665530418       16.0927681889
  H        24.3633992355       17.9316234557       19.6345564119
  H        23.0138947538       17.8173524537       18.9596200887
  H        19.9410101691       16.3375954026       20.4690056716
  H        20.5352838615       15.7987795563       21.6642726470
  H        15.9592997248       22.4655297000       23.1687808412
  H        15.7796517384       22.2196254151       21.5247270072
  H        23.7192742898       19.4624251028       17.7870082269
  H        23.7170600041       20.8981739589       17.0623525081
  H        17.5410032293       19.4893393558       20.3379007482
  H        18.7594456425       19.9631467998       19.4382761379
  H        21.9715287433       15.8399040084       19.3448997809
  H        21.5395696520       16.6391482238       18.0743355539
  H        21.7306389265       20.0248711150       22.6368131613
  H        21.3630252146       21.4278797872       23.1556945029
  H        20.4058085989       20.8328971686       18.6689584716
  H        20.8360203163       20.5344806230       20.1385870531
  H        19.3208969151       17.1523867096       16.7384075714
  H        20.4138552103       18.1027758004       17.0348134829
  H        17.7965686164       18.8610834268       22.3424373694
  H        16.7161283315       19.9263107425       22.2780192120
  H        22.4200980858       18.9478626983       20.5517783128
  H        21.1238911952       18.2325177124       21.0702136817
  H        17.4361293378       18.3894018909       18.1987548832
  O        17.5785954253       17.9368270205       17.3375251948
  O        20.6972098208       20.0258124875       17.1945086778
  O        18.4320186249       16.3454054863       19.5946465201
  O        15.5842696748       23.2585281546       19.9705619676
  O        15.8602161278       16.6856806273       20.8373001240
  O        17.6506322781       22.3581498709       18.6592343185
  O        19.2917761132       18.9578210959       23.5438892132
  O        18.6432666673       21.1154631458       15.7079642032
  O        23.6884719460       18.4922587040       19.2907571573
  O        20.8249627494       16.3538217305       20.9687110872
  O        16.0360520763       21.8238410476       22.4064890812
  O        23.3607507600       20.0001400261       17.0214171956
  O        17.8115312963       19.6248464988       19.3856389058
  O        22.3463032772       16.4446545409       18.6559854579
  O        21.5738521673       20.5564535904       23.4681126376
  O        20.3291686849       21.1379565541       19.6060452865
  O        20.2868762959       17.1343925549       17.0585805586
  O        16.8924356621       19.0123209196       21.9692689376
  O        21.6185173450       19.1183709989       21.1403729530
      57
 i =        6, time =        6.000, E =      -327.1808160199
  H        16.6602846385       17.5299297784       17.1182826806
  H        20.0729243305       20.5334291703       16.5430372150
  H        21.6832201414       20.0910301557       16.9782268417
  H        18.3820643498       16.6035976776       18.6091672079
  H        17.5188761502       16.2004278794       19.9105166111
  H        15.5126093864       24.1860673568       20.2831015954
  H        16.4393722029       23.1450770489       19.5166129710
  H        15.4588213162       16.2638189730       21.6783580394
  H        16.1796773704       17.5648999276       21.2694049902
  H        18.5118641322       22.2480423301       19.1468660773
  H        17.2520118931       21.4328474037       18.9437624049
  H        19.4906111368       18.3970849985       24.3316710991
  H        20.0786426240       19.4916635206       23.3717214291
  H        17.7804678634       20.5668062844       15.9350536618
  H        18.3800689880       21.9872614563       16.0992456170
  H        24.3532642996       17.9263653015       19.6288110566
  H        23.0130291241       17.8224176592       18.9535144710
  H        19.9853987197       16.3484073617       20.4542268954
  H        20.5582964349       15.7803409163       21.6589377133
  H        15.9355168210       22.4509322124       23.1639154586
  H        15.7848026367       22.2418008492       21.5619239877
  H        23.7344518632       19.4469822762       17.8006023621
  H        23.7006290087       20.8675398706       17.0563321257
  H        17.5402478925       19.5102046110       20.3111860413
  H        18.7679735713       19.9835424536       19.4243599236
  H        21.9813429160       15.8506153882       19.3381377997
  H        21.5374811806       16.6497032785       18.0886700465
  H        21.7143409714       20.0271535358       22.6401069981
  H        21.3513418140       21.4387550695       23.1765573107
  H        20.4365967457       20.8457400318       18.6468613760
  H        20.8315280547       20.5250087485       20.1303684424
  H        19.3280945094       17.1716228094       16.7280901793
  H        20.4040494709       18.1227585807       17.0319307372
  H        17.7936127662       18.8344351479       22.3385760550
  H        16.6830909559       19.9291109951       22.2644572139
  H        22.3931556428       18.9545201520       20.5261182153
  H        21.1200138352       18.2363588082       21.0637387257
  H        17.4409975768       18.3939863294       18.1752239933
  O        17.5804984236       17.9392166382       17.3378386205
  O        20.7008786720       20.0265744626       17.1886530960
  O        18.4342436657       16.3472714993       19.5929826765
  O        15.5825814260       23.2624433544       19.9709219921
  O        15.8601336746       16.6833084036       20.8359513289
  O        17.6473597110       22.3553707392       18.6567028737
  O        19.2957570081       18.9555231524       23.5398851454
  O        18.6414535662       21.1114304204       15.7066680698
  O        23.6908337261       18.4916107243       19.2907262350
  O        20.8284115696       16.3567027710       20.9680503392
  O        16.0281055193       21.8243169993       22.4097723617
  O        23.3645213272       19.9973472158       17.0246875411
  O        17.8003669740       19.6284259982       19.3880553262
  O        22.3427287860       16.4431306166       18.6577948618
  O        21.5784726272       20.5537020301       23.4699484536
  O        20.3314194806       21.1333561836       19.6056380333
  O        20.2943392843       17.1415224676       17.0600430243
  O        16.8832891537       19.0124694776       21.9689349208
  O        21.6214019420       19.1179142375       21.1421913252
      57
 i =        7, time =        7.000, E =      -327.1853959977
  H        16.6750339833       17.5258494431       17.1385707911
  H        20.0578836676       20.5288532255       16.5441393184
  H        21.6879190075       20.0797964337       16.9794515981
  H        18.3715623415       16.6266222580       18.6184865465
  H        17.5087989658       16.1901402159       19.9251164579
  H        15.5061223841       24.1870313873       20.2745202114
  H        16.4640890861       23.1148167557       19.5349013545
  H        15.4395310842       16.2650479394       21.6608893894
  H        16.1695431343       17.5400337088       21.2805745614
  H        18.5038001384       22.2824852481       19.1646923914
  H        17.2672899351       21.4293768552       18.9557599707
  H        19.5087058957       18.4248636212       24.3157381080
  H        20.0793188176       19.4880130724       23.3711164643
  H        17.8288890176       20.5589235977       15.9553717807
  H        18.3981684100       22.0040708658       16.1048566666
  H        24.3612450878       17.9077236622       19.6316541969
  H        23.0115064608       17.8200936255       18.9479857430
  H        20.0226259118       16.3618091176       20.4317003255
  H        20.5790673378       15.7499285393       21.6724289032
  H        15.9110232194       22.4350594430       23.1516912844
  H        15.7870071801       22.2725328617       21.5937903070
  H        23.7471327932       19.4389114824       17.8100471916
  H        23.6951636336       20.8573398352       17.0540592694
  H        17.5354098929       19.5273827271       20.2973830267
  H        18.7657502847       19.9998592266       19.4115877216
  H        21.9891889710       15.8613358542       19.3377113531
  H        21.5367222152       16.6572150982       18.1027430725
  H        21.7007928107       20.0298018619       22.6395476347
  H        21.3376214750       21.4572867197       23.1937582981
  H        20.4722416284       20.8556433487       18.6256249119
  H        20.8383821498       20.5000135118       20.1335349067
  H        19.3471907334       17.1856101350       16.7247652679
  H        20.3997399011       18.1484319092       17.0311708295
  H        17.7889442178       18.8089281408       22.3379182815
  H        16.6466537082       19.9361785221       22.2531318603
  H        22.3674569708       18.9623489450       20.5028883965
  H        21.1208946204       18.2463205964       21.0609746786
  H        17.4464238165       18.4095329594       18.1664075438
  O        17.5812340453       17.9405275136       17.3366511143
  O        20.7039351597       20.0275647408       17.1825358010
  O        18.4369105610       16.3491963706       19.5906078653
  O        15.5799912573       23.2663586685       19.9719892142
  O        15.8597552340       16.6811168958       20.8359959867
  O        17.6440571611       22.3515322779       18.6546786222
  O        19.2987480538       18.9524012085       23.5359850334
  O        18.6381977265       21.1070500102       15.7059421494
  O        23.6922335700       18.4923744775       19.2901106747
  O        20.8321996705       16.3602709682       20.9666141626
  O        16.0203365562       21.8243453861       22.4137463162
  O        23.3676729916       19.9929080184       17.0280791436
  O        17.7899980503       19.6326059937       19.3895606561
  O        22.3390650559       16.4417493006       18.6589690081
  O        21.5831029763       20.5504092418       23.4721094489
  O        20.3325366159       21.1297790369       19.6044509507
  O        20.3007436077       17.1488456279       17.0608222077
  O        16.8745026702       19.0124033513       21.9684033583
  O        21.6240510199       19.1169667652       21.1436574621
      57
 i =        8, time =        8.000, E =      -327.1913780070
  H        16.7034372100       17.5283559203       17.1615987087
  H        20.0534072037       20.5170733177       16.5497770458
  H        21.6924231421       20.0702665217       16.9776035510
  H        18.3601617699       16.6473347700       18.6396718688
  H        17.5015183630       16.1828300598       19.9382232687
  H        15.5023477126       24.1899594643       20.2643160199
  H        16.4906749454       23.0878867772       19.5508829571
  H        15.4252457448       16.2689853622       21.6293687532
  H        16.1580410139       17.5124916286       21.2858238010
  H        18.4933277343       22.3189731537       19.1785631665
  H        17.2887915160       21.4363013595       18.9603459968
  H        19.5284866008       18.4504255639       24.3039760535
  H        20.0921553630       19.4942168204       23.3719455126
  H        17.8876534615       20.5558345039       15.9736662995
  H        18.4186377048       22.0102993608       16.1071570327
  H        24.3797180959       17.8821092414       19.6393390164
  H        23.0105980548       17.8114579433       18.9436599310
  H        20.0459145107       16.3761315502       20.3998909293
  H        20.5999516241       15.7172792427       21.6916372673
  H        15.8852874345       22.4232976680       23.1412859829
  H        15.7848872662       22.3129261472       21.6138817897
  H        23.7560885622       19.4398077852       17.8131763235
  H        23.7025698252       20.8727729389       17.0556005424
  H        17.5242860618       19.5396677424       20.3056052378
  H        18.7502745980       20.0109885522       19.4005644639
  H        21.9928145585       15.8681308167       19.3480914863
  H        21.5350081231       16.6620846921       18.1147234103
  H        21.6903203332       20.0329850289       22.6339090632
  H        21.3243262081       21.4738636291       23.2097375507
  H        20.5109506440       20.8638804757       18.6112448875
  H        20.8511666352       20.4660328387       20.1427928833
  H        19.3744627774       17.1933343021       16.7273465084
  H        20.4010191571       18.1733658422       17.0330430348
  H        17.7789159763       18.7877154154       22.3396470595
  H        16.6099254623       19.9432302891       22.2437536931
  H        22.3459183527       18.9710840500       20.4809787979
  H        21.1249157193       18.2599334272       21.0622087432
  H        17.4523931694       18.4362531029       18.1725641319
  O        17.5810764399       17.9408792040       17.3340548908
  O        20.7062783650       20.0287811338       17.1762151135
  O        18.4395548273       16.3510925508       19.5877989635
  O        15.5769413871       23.2699984210       19.9735079474
  O        15.8589986667       16.6788736733       20.8371944861
  O        17.6408171852       22.3467599838       18.6532435656
  O        19.3006414969       18.9488009498       23.5317091055
  O        18.6341423305       21.1030217757       15.7058022059
  O        23.6930664214       18.4940806250       19.2890747507
  O        20.8365928452       16.3640168757       20.9653328546
  O        16.0129104664       21.8235026306       22.4182114789
  O        23.3701563652       19.9863947331       17.0317095766
  O        17.7807840181       19.6375181701       19.3895506135
  O        22.3356059346       16.4407418568       18.6593331990
  O        21.5875641151       20.5471869317       23.4745469643