      21
 i =        1, time =        1.000, E =      -120.5225382067
  H        17.4503630744       18.8750623810       17.8204139384
  H        22.5626821672       20.5099367192       19.3799965941
  H        21.4015002358       19.4697367141       19.4719961206
  H        19.9066034891       17.4084912508       20.5397954589
  H        20.2833801315       18.7716293865       21.3399205574
  H        18.6717399165       21.1399233247       19.2921245190
  H        19.3569296502       22.4356167801       18.7200012377
  H        20.8522439168       19.8183030250       23.6916385097
  H        20.0937492092       20.6589304032       22.5255619183
  H        20.5934584484       21.9162704634       16.3418939695
  H        21.1121328453       21.3879103690       17.8147863481
  H        18.9531692388       22.6249570116       22.4971774436
  H        19.3856691033       22.2706737267       21.0169139624
  H        18.5675531907       18.8245088093       18.8153338956
  O        17.8191744390       19.4325714905       18.5205512240
  O        21.9093357201       20.0612037892       18.8169957928
  O        20.1426816599       18.3491106182       20.4055649877
  O        18.8151181014       22.1137873187       19.4905362175
  O        20.4102389210       19.7553811328       22.8332233554
  O        20.7422029510       22.1644398166       17.2614676424
  O        19.6230481910       22.1464484737       21.9722915224
      21
 i =        2, time =        2.000, E =      -120.5190117652
  H        17.4259273199       18.8739894866       17.8038905585
  H        22.5975887999       20.5158327119       19.3776186161
  H        21.3607999296       19.4686257171       19.4663286134
  H        19.8954289218       17.4258762860       20.5337694931
  H        20.3064114018       18.7797210236       21.3540325659
  H        18.6813122237       21.1238088729       19.2994412711
  H        19.3647956274       22.4329895062       18.7213746326
  H        20.8292964299       19.8182450624       23.7050153756
  H        20.0761048422       20.6659849250       22.5242979214
  H        20.5968725070       21.9305362565       16.3604586751
  H        21.0986742288       21.4048408695       17.8166562708
  H        18.9899904032       22.6427660174       22.5158933826
  H        19.3887295028       22.2543520175       20.9924543325
  H        18.5960358547       18.8478598112       18.8093436118
  O        17.8179074097       19.4269658488       18.5224874498
  O        21.9043442140       20.0635710424       18.8158465605
  O        20.1436873824       18.3564546724       20.4087974087
  O        18.8180733472       22.1117545267       19.4907319704
  O        20.4067113651       19.7539088778       22.8336599264
  O        20.7459539667       22.1642216512       17.2565046796
  O        19.6240849416       22.1413536134       21.9715613812
      21
 i =        3, time =        3.000, E =      -120.5157848694
  H        17.4024702251       18.8772639589       17.7900619605
  H        22.6246939569       20.5160581158       19.3711951386
  H        21.3285152104       19.4753837401       19.4509700307
  H        19.8853792758       17.4416276439       20.5307759676
  H        20.3250088750       18.7798852693       21.3578207228
  H        18.6901957868       21.1205092938       19.3062769393
  H        19.3715329513       22.4274697963       18.7230807057
  H        20.8067371189       19.8205176627       23.7185701577
  H        20.0602846477       20.6734340426       22.5270486541
  H        20.5987084758       21.9347632770       16.3622470903
  H        21.0844695069       21.4216553509       17.8099544602
  H        19.0254010052       22.6610077018       22.5319867681
  H        19.3884044823       22.2378685012       20.9679362457
  H        18.6168477035       18.8784492866       18.8031926952
  O        17.8171698557       19.4207112232       18.5244306408
  O        21.8992620931       20.0657865509       18.8155121077
  O        20.1449480823       18.3646128381       20.4125970449
  O        18.8210724153       22.1091364246       19.4907264302
  O        20.4030041663       19.7522216822       22.8335813288
  O        20.7498606096       22.1645082746       17.2532530435
  O        19.6254210747       22.1361098610       21.9709543090
      21
 i =        4, time =        4.000, E =      -120.5164256212
  H        17.3844813015       18.8871925075       17.7844401048
  H        22.6379625707       20.5068050439       19.3581310137
  H        21.3069692662       19.4906892486       19.4270893475
  H        19.8757009919       17.4533672253       20.5310360582
  H        20.3387695873       18.7725551055       21.3516777882
  H        18.6979920507       21.1294447322       19.3124315042
  H        19.3772616056       22.4193056413       18.7250172516
  H        20.7836920232       19.8247122689       23.7303918509
  H        20.0473024565       20.6786479425       22.5342982170
  H        20.5983621013       21.9280748548       16.3442059203
  H        21.0727127013       21.4321151318       17.7988728688
  H        19.0590918945       22.6798077790       22.5444259971
  H        19.3852782391       22.2215975238       20.9498171277
  H        18.6303382495       18.9132197535       18.7959821212
  O        17.8166625576       19.4138572304       18.5260897394
  O        21.8943111953       20.0680355827       18.8160855536
  O        20.1465211904       18.3737337807       20.4169319674
  O        18.8241456298       22.1059400332       19.4905566681
  O        20.3991074496       19.7505090778       22.8330754040
  O        20.7537626278       22.1657554439       17.2516378950
  O        19.6270238283       22.1307249588       21.9701012192
      21
 i =        5, time =        5.000, E =      -120.5182602335
  H        17.3743186957       18.9034152912       17.7887352175
  H        22.6361441415       20.4875441041       19.3392083080
  H        21.2955945632       19.5125264516       19.3983953378
  H        19.8662367930       17.4612635855       20.5342803402
  H        20.3480618811       18.7596798112       21.3388657648
  H        18.7036858369       21.1454916857       19.3171765719
  H        19.3824501539       22.4091830137       18.7267066630
  H        20.7595407459       19.8303141579       23.7389064666
  H        20.0377568719       20.6798828563       22.5458591734
  H        20.5974855023       21.9133485253       16.3169598047
  H        21.0663504845       21.4301576474       17.7878758728
  H        19.0912549307       22.6988483336       22.5520482446
  H        19.3798431237       22.2061561183       20.9422689141
  H        18.6395314431       18.9478784236       18.7877224429
  O        17.8160513321       19.4066844571       18.5273533972
  O        21.8895947128       20.0704752902       18.8172829099
  O        20.1483759528       18.3836820419       20.4215988215
  O        18.8273391748       22.1024280553       19.4903123295
  O        20.3950259033       19.7489013958       22.8322710413
  O        20.7573707869       22.1681788086       17.2507121634
  O        19.6288336965       22.1252427271       21.9687981488
      21
 i =        6, time =        6.000, E =      -120.5176600904
  H        17.3717148633       18.9229581561       17.8004409173
  H        22.6232681870       20.4608577235       19.3184081992
  H        21.2905766105       19.5362712561       19.3708425483
  H        19.8574839384       17.4677874095       20.5398094772
  H        20.3541389086       18.7445614679       21.3255322661
  H        18.7058212734       21.1601214913       19.3193796571
  H        19.3877291705       22.3980154223       18.7274993494
  H        20.7342126739       19.8367454891       23.7436569203
  H        20.0317102697       20.6764787198       22.5608525287
  H        20.5983472350       21.8949166216       16.2950156970
  H        21.0664929656       21.4137184442       17.7788258881
  H        19.1222363500       22.7176371808       22.5538312312
  H        19.3724776655       22.1922960964       20.9470006992
  H        18.6489812600       18.9780667489       18.7789351044
  O        17.8150675736       19.3996218582       18.5283438924
  O        21.8850901836       20.0732408893       18.8184727150
  O        20.1503925361       18.3940685735       20.4262262071
  O        18.8307114737       22.0990631111       19.4901093864
  O        20.3907717354       19.7474526943       22.8312843382
  O        20.7604739160       22.1716529053       17.2494516011
  O        19.6307929738       22.1197272453       21.9670064509
      21
 i =        7, time =        7.000, E =      -120.5148283505
  H        17.3737546218       18.9407387655       17.8130991064
  H        22.6087186079       20.4319891665       19.3025936715
  H        21.2854510369       19.5555335068       19.3515600139
  H        19.8501887828       17.4760634809       20.5466769690
  H        20.3589273519       18.7312262020       21.3196376137
  H        18.7029276456       21.1648634479       19.3179433657
  H        19.3936436079       22.3866561378       18.7268721897
  H        20.7082315755       19.8433633026       23.7455722879
  H        20.0286057994       20.6690304742       22.5777420371
  H        20.6023198587       21.8765087179       16.2881359476
  H        21.0717932157       21.3868988643       17.7698114751
  H        19.1521656828       22.7358632241       22.5492485733
  H        19.3633869895       22.1807599207       20.9632713104
  H        18.6623787647       19.0008342750       18.7699354717
  O        17.8136597087       19.3931341047       18.5294463287
  O        21.8805987068       20.0764144556       18.8187640088
  O        20.1524095009       18.4044182809       20.4303378620
  O        18.8343193342       22.0963123861       19.4900420238
  O        20.3863591887       19.7461310112       22.8301892822
  O        20.7630728019       22.1757084814       17.2473692298
  O        19.6328738309       22.1142359852       21.9648303294
      21
 i =        8, time =        8.000, E =      -120.5145864223
  H        17.3761016449       18.9511173090       17.8183668815
  H        22.6041450659       20.4067703851       19.2994033758
  H        21.2742971605       19.5650162134       19.3459648002
  H        19.8448178455       17.4881076237       20.5538985677
  H        20.3641280953       18.7229044667       21.3273625991
  H        18.6942525490       21.1566462520       19.3125870982
  H        19.4004366617       22.3756266947       18.7246974392
  H        20.6825471158       19.8494298005       23.7466379159
  H        20.0272502092       20.6594884967       22.5944358236
  H        20.6095065449       21.8605150587       16.2991552872
  H        21.0796110933       21.3577117555       17.7573039900
  H        19.1808368032       22.7536591265       22.5385298129
  H        19.3524216015       22.1721492572       20.9876703272
  H        18.6801480070       19.0154869871       18.7602072181
  O        17.8120691206       19.3875789271       18.5312176583
  O        21.8757390311       20.0799694924       18.8173214204
  O        20.1543116647       18.4143850329       20.4335911184
  O        18.8381821104       22.0943323127       19.4901196075
  O        20.3818181371       19.7448183179       22.8290217066
  O        20.7653277062       22.1797160349       17.2445183358
  O        19.6350994048       22.1087949076       21.9625085103
      21
 i =        9, time =        9.000, E =      -120.5180403720
  H        17.3760996528       18.9509261424       17.8109219389
  H        22.6150828815       20.3875148343       19.3120962749
  H        21.2563706357       19.5641957239       19.3543291889
  H        19.8412324707       17.5038929320       20.5606352787
  H        20.3700261242       18.7205033773       21.3486690091
  H        18.6802725940       21.1401769658       19.3042569866
  H        19.4079619675       22.3650008065       18.7213602077
  H        20.6581800335       19.8540884310       23.7490268713
  H        20.0259860049       20.6508775405       22.6085372395
  H        20.6188341062       21.8476967992       16.3242891076
  H        21.0875966422       21.3341232319       17.7389975813
  H        19.2078124891       22.7716504623       22.5227063475
  H        19.3388647616       22.1668134220       21.0140630163
  H        18.6992215078       19.0231487459       18.7484853034
  O        17.8106504490       19.3830390358       18.5340717628
  O        21.8701850455       20.0837943514       18.8139061351
  O        20.1561134378       18.4239034630       20.4360370689
  O        18.8422539946       22.0928259584       19.4902391115
  O        20.3772056432       19.7433368087       22.8278140435
  O        20.7674502371       22.1831487214       17.2412948809
  O        19.6375503925       22.1033886476       21.9604052222
      21
 i =       10, time =       10.000, E =      -120.5190882447
  H        17.3753706844       18.9417695328       17.7927708198
  H        22.6353222706       20.3713545815       19.3361054985
  H        21.2367712786       19.5575209480       19.3716830909
  H        19.8386821667       17.5214463361       20.5663137900
  H        20.3753227313       18.7227856944       21.3770200031
  H        18.6624195077       21.1243474819       19.2946142289
  H        19.4157733008       22.3545167214       18.7176667627
  H        20.6358115129       19.8563905382       23.7540225806
  H        20.0231712949       20.6463010447       22.6178042664
  H        20.6282111922       21.8369084552       16.3538059073
  H        21.0944807924       21.3216174873       17.7150158638
  H        19.2326581094       22.7907277925       22.5033895644
  H        19.3215329238       22.1647364744       21.0347967327
  H        18.7151564633       19.0255979400       18.7334795789
  O        17.8095752461       19.3792750923       18.5379592774
  O        21.8639885509       20.0877775503       18.8091019393
  O        20.1579612817       18.4331688528       20.4381214601
  O        18.8464453442       22.0912577339       19.4902295980
  O        20.3725990007       19.7415165210       22.8266330260
  O        20.7696449041       22.1857542013       17.2383188331
  O        19.6403400435       22.0979748964       21.9589396356
      21
 i =       11, time =       11.000, E =      -120.5165349656
  H        17.3784440429       18.9286884961       17.7715537599
  H        22.6527221373       20.3537740763       19.3625966016
  H        21.2222850528       19.5508843071       19.3912018048
  H        19.8361035339       17.5378155834       20.5706354976
  H        20.3781735311       18.7279167510       21.4037626214
  H        18.6423414188       21.1169711256       19.2852156628
  H        19.4233601932       22.3438388444       18.7145749826
  H        20.6155698532       19.8554144944       23.7613396645
  H        20.0178637683       20.6474161472       22.6207223847
  H        20.6349724718       21.8254721807       16.3745403384
  H        21.1002171124       21.3223509632       17.6877584338
  H        19.2552706440       22.8115657485       22.4823116159
  H        19.2996483167       22.1653850741       21.0439397947
  H        18.7244920351       19.0243903174       18.7145628771
  O        17.8087705374       19.3758682190       18.5424266082
  O        21.8574913343       20.0917974514       18.8038896475
  O        20.1600448685       18.4424771007       20.4404065003
  O        18.8506609239       22.0891635954       19.4899250142
  O        20.3680659911       19.7392888541       22.8255884548
  O        20.7720733133       22.1875830685       17.2362818820
  O        19.6435374569       22.0925239405       21.9584030850
      21
 i =       12, time =       12.000, E =      -120.5156468547
  H        17.3892615756       18.9169182803       17.7552137373
  H        22.6575852958       20.3320118471       19.3837999637
  H        21.2176331247       19.5486582797       19.4071541077
  H        19.8326295172       17.5505792438       20.5734575362
  H        20.3771897945       18.7345773685       21.4222026887
  H        18.6212839660       21.1219820725       19.2770463142
  H        19.4304241013       22.3328033837       18.7128590092
  H        20.5971131097       19.8504684373       23.7693102172
  H        20.0102790971       20.6533828101       22.6169104723
  H        20.6369913858       21.8114442459       16.3767130016
  H        21.1059493005       21.3349088676       17.6612444833
  H        19.2761216710       22.8340659097       22.4608214852
  H        19.2741853228       22.1675705344       21.0408115313
  H        18.7260104326       19.0205406341       18.6920442188
  O        17.8080581634       19.3724383781       18.5469336993
  O        21.8510494722       20.0956891557       18.7991366562
  O        20.1625024854       18.4520597154       20.4433224373
  O        18.8548150480       22.0863107347       19.4892167820
  O        20.3636322930       19.7367433755       22.8248018002
  O        20.7747874844       22.1888610898       17.2355558550
  O        19.6470685945       22.0870717912       21.9587641746
      21
 i =       13, time =       13.000, E =      -120.5179404728
  H        17.4091535778       18.9098655223       17.7484851186
  H        22.6458267610       20.3056926540       19.3952459239
  H        21.2242824352       19.5528117907       19.4159764385
  H        19.8280686810       17.5591935994       20.5746348795
  H        20.3717975387       18.7421767326       21.4290707796
  H        18.5996944175       21.1388457615       19.2703566967
  H        19.4370688157       22.3215345619       18.7128467407
  H        20.5798881062       19.8412913848       23.7758007838
  H        20.0016502560       20.6612194905       22.6071428724
  H        20.6338961878       21.7965700051       16.3611266716
  H        21.1139376963       21.3543707596       17.6403135390
  H        19.2962228739       22.8570808174       22.4396263448
  H        19.2482258937       22.1695553080       21.0300555541
  H        18.7209882216       19.0145162226       18.6671141058
  O        17.8072649133       19.3687659254       18.5510850076
  O        21.8449062925       20.0992738214       18.7953855562
  O        20.1653725368       18.4619873858       20.4470831633
  O        18.8588533520       22.0827256280       19.4880795314
  O        20.3592741028       19.7340943365       22.8243554790
  O        20.7776603636       22.1897970796       17.2357875325
  O        19.6506944535       22.0817443430       21.9596818251
      21
 i =       14, time =       14.000, E =      -120.5202149191
  H        17.4365151810       18.9085244657       17.7517830211
  H        22.6191709587       20.2763414157       19.3961663240
  H        21.2404540424       19.5629355803       19.4164723265
  H        19.8230272903       17.5652794133       20.5739792983
  H        20.3622143830       18.7507220419       21.4245587323
  H        18.5769562234       21.1629339788       19.2645865048
  H        19.4438204830       22.3104018271       18.7143313954
  H        20.5633906189       19.8281527577       23.7792804489
  H        19.9936423639       20.6672126484       22.5930596952
  H        20.6270167432       21.7857469115       16.3377496643
  H        21.1271451404       21.3735007653       17.6295316545
  H        19.3168129075       22.8786947182       22.4189219097
  H        19.2257843019       22.1694840388       21.0182533860
  H        18.7127367305       19.0063903260       18.6416316413
  O        17.8062718304       19.3648116482       18.5547173339
  O        21.8391364298       20.1024325692       18.7927924589
  O        20.1685945823       18.4721691461       20.4516884928
  O        18.8627710698       22.0786709198       19.4865770901
  O        20.3549369392       19.7315833828       22.8242518606
  O        20.7804164850       22.1905408308       17.2360590598
  O        19.6541015882       22.0767341842       21.9607111609
      21
 i =       15, time =       15.000, E =      -120.5198198379
  H        17.4671974892       18.9114788450       17.7611085059
  H        22.5850703675       20.2468605367       19.3897275363
  H        21.2612215312       19.5762593384       19.4099785251
  H        19.8185733720       17.5716569227       20.5713781059
  H        20.3493255382       18.7607632316       21.4120997979
  H        18.5513772918       21.1868660965       19.2584208141
  H        19.4514596272       22.2998412577       18.7166840814
  H        20.5473198796       19.8118095514       23.7795326170
  H        19.9877712863       20.6682865958       22.5767713763
  H        20.6183054053       21.7835843405       16.3180704974
  H        21.1479781543       21.3861166386       17.6315531285
  H        19.3389456231       22.8969521340       22.3987682505
  H        19.2103672771       22.1658523114       21.0108185947
  H        18.7054439985       18.9961774485       18.6178156282
  O        17.8050632446       19.3606907327       18.5579292934
  O        21.8336219398       20.1051466032       18.7910843980
  O        20.1720451643       18.4824144042       20.4569288066
  O        18.8666232347       22.0745712127       19.4848457784
  O        20.3505611420       19.7293894207       22.8243969481
  O        20.7827754019       22.1911898220       17.2354757458
  O        19.6570157945       22.0722274582       21.9614777814
      21
 i =       16, time =       16.000, E =      -120.5173598615
  H        17.4954990467       18.9154339356       17.7689477761
  H        22.5557962814       20.2208483388       19.3827634385
  H        21.2789498019       19.5878203318       19.4003633986
  H        19.8156896507       17.5808658724       20.5669471039
  H        20.3344840937       18.7734190016       21.3979649791
  H        18.5209132773       21.2036757972       19.2502911761
  H        19.4607088879       22.2901060636       18.7191228303
  H        20.5315991935       19.7933420038       23.7777730319
  H        19.9850506633       20.6627891036       22.5604755394
  H        20.6094737152       21.7922039125       16.3099026802
  H        21.1764713424       21.3911863034       17.6455438718
  H        19.3631913844       22.9106406369       22.3794328857
  H        19.2041819106       22.1577660546       21.0108256825
  H        18.7024461371       18.9843215590       18.5978908515
  O        17.8037748922       19.3566068476       18.5610504015
  O        21.8280866174       20.1075147888       18.7895873697
  O        20.1755844325       18.4925136914       20.4623910760
  O        18.8704999492       22.0708330598       19.4830377360
  O        20.3461010301       19.7275809936       22.8246145627
  O        20.7846176928       22.1916727648       17.2335939741
  O        19.6592680596       22.0683401199       21.9617374969
      21
 i =       17, time =       17.000, E =      -120.5172092903
  H        17.5161973388       18.9169745485       17.7674895120
  H        22.5437170704       20.2012271668       19.3826938882
  H        21.2853510962       19.5918916592       19.3927196772
  H        19.8148243597       17.5940080954       20.5610899726
  H        20.3190971884       18.7901448908       21.3897561190
  H        18.4848231032       21.2110180323       19.2393546935
  H        19.4718902084       22.2810620682       18.7210274121
  H        20.5162738549       19.7739226926       23.7761080256
  H        19.9858171287       20.6508353889       22.5460953043
  H        20.6015647549       21.8108853051       16.3157684541
  H        21.2096709367       21.3933326547       17.6672453230
  H        19.3895413473       22.9198002155       22.3615241278
  H        19.2078864713       22.1450058058       21.0189010377
  H        18.7047153143       18.9720459272       18.5837716559
  O        17.8026649405       19.3527197044       18.5644652766
  O        21.8222704230       20.1097378227       18.7875130513
  O        20.1791040334       18.5023068621       20.4675371155
  O        18.8744434682       22.0675894785       19.4812352048
  O        20.3415388516       19.7261033816       22.8246948467
  O        20.7860551272       22.1917402247       17.2305209214
  O        19.6608153575       22.0650814201       21.9613834158
      21
 i =       18, time =       18.000, E =      -120.5206207008
  H        17.5269129761       18.9152796003       17.7538203358
  H        22.5526233603       20.1887439142       19.3912588981
  H        21.2756060227       19.5852900900       19.3899998407
  H        19.8156790311       17.6102591876       20.5544435543
  H        20.3039964822       18.8118674613       21.3930383081
  H        18.4450176944       21.2126801271       19.2261068741
  H        19.4847135309       22.2721495325       18.7221588703
  H        20.5013305592       19.7545928372       23.7764623815
  H        19.9896399582       20.6344620358       22.5349399300
  H        20.5946468111       21.8362917656       16.3324199482
  H        21.2430665958       21.3990814893       17.6909366464
  H        19.4174979251       22.9257541532       22.3458742270
  H        19.2205158711       22.1279919062       21.0331988516
  H        18.7106140156       18.9612061238       18.5767949193
  O        17.8019797959       19.3489842985       18.5682999675
  O        21.8162194240       20.1119959220       18.7845679147
  O        20.1825718026       18.5117445728       20.4719170556
  O        18.8783712444       22.0646099743       19.4793993287
  O        20.3369004367       19.7247826540       22.8244737360
  O        20.7873661207       22.1911839711       17.2268238428
  O        19.6617382408       22.0623482786       21.9604600834
      21
 i =       19, time =       19.000, E =      -120.5218415140
  H        17.5287874331       18.9131187066       17.7323158521
  H        22.5746784392       20.1820598660       19.4023853516
  H        21.2514191824       19.5699949863       19.3903210286
  H        19.8172845288       17.6271384220       20.5477454007
  H        20.2890728388       18.8378639212       21.4078962654
  H        18.4054841355       21.2155871060       19.2119267114
  H        19.4983102424       22.2625424240       18.7226872439
  H        20.4865445337       19.7361237211       23.7794831294
  H        19.9953354027       20.6175599815       22.5274746707
  H        20.5875681622       21.8629159265       16.3508623680
  H        21.2724681937       21.4131417364       17.7114829030
  H        19.4463261619       22.9305842344       22.3332117346
  H        19.2394738763       22.1076875218       21.0492566817
  H        18.7170471910       18.9536886390       18.5775510333
  O        17.8018352337       19.3451273438       18.5722730308
  O        21.8102869498       20.1142753119       18.7812539549
  O        20.1860448161       18.5209444498       20.4754130037
  O        18.8821080025       22.0614779366       19.4774017623
  O        20.3322630753       19.7233416465       22.8239089528
  O        20.7888885081       22.1900405636       17.2233997292
  O        19.6622262991       22.0599578065       21.9591934293
      21
 i =       20, time =       20.000, E =      -120.5192122710
  H        17.5249538159       18.9147558760       17.7112799753
  H        22.5974276180       20.1791096483       19.4076505088
  H        21.2194009325       19.5517171319       19.3885933562
  H        19.8184101447       17.6415871803       20.5416663364
  H        20.2736589431       18.8656113001       21.4290798978
  H        18.3703899213       21.2256936560       19.1981788789
  H        19.5115090707       22.2514121239       18.7230277707
  H        20.4714756996       19.7189995004       23.7841626409
  H        20.0012424423       20.6051955221       22.5233874328
  H        20.5783048573       21.8845492126       16.3591122653
  H        21.2951435729       21.4369749126       17.7253308652
  H        19.4753600332       22.9361760221       22.3237381057
  H        19.2609073990       22.0854119100       21.0603624144
  H        18.7211123196       18.9507616020       18.5859004576
  O        17.8022074611       19.3408221378       18.5759012851
  O        21.8048077765       20.1163702335       18.7784230568
  O        20.1896247835       18.5301576594       20.4782722204
  O        18.8854828617       22.0578403494       19.4750984925
  O        20.3277332105       19.7214477607       22.8230959845
  O        20.7909242342       22.1885895928       17.2212346225
  O        19.6625399666       22.0577150354       21.9579899146
      21
 i =       21, time =       21.000, E =      -120.5181037306
  H        17.5186796472       18.9233552825       17.6980564439
  H        22.6110197891       20.1780416922       19.4014707458
  H        21.1870328808       19.5363442672       19.3802220673
  H        19.8182223406       17.6516156462       20.5366674026
  H        20.2572390322       18.8918935849       21.4495825487
  H        18.3425659848       21.2458129620       19.1856512710
  H        19.5232379645       22.2381667029       18.7235766895
  H        20.4556247129       19.7034697493       23.7884865701
  H        20.0058896332       20.6019126574       22.5221158831
  H        20.5656993135       21.8973015259       16.3500655895
  H        21.3103613780       21.4687534821       17.7308487533
  H        19.5041568930       22.9432946712       22.3168291861
  H        19.2809824800       22.0625588338       21.0596951148
  H        18.7213585435       18.9526795882       18.6011507149
  O        17.8029732141       19.3358787668       18.5787803963
  O        21.7999106864       20.1180434789       18.7767243950
  O        20.1933853374       18.5396390154       20.4808986038
  O        18.8883990978       22.0535321273       19.4723877878