      15
 i =        1, time =        1.000, E =       -86.0798771350
  H        17.9913709063       22.1681864195       21.1025171652
  H        22.0492417101       19.8011219284       18.6899204257
  H        20.6418499700       19.4450875670       18.9092259819
  H        19.7435807109       17.8390638203       20.5407691350
  H        18.3512779792       18.2383135170       21.2090433299
  H        20.1935477797       19.3490452522       22.1201102375
  H        21.2424587487       19.8051191763       20.9884094504
  H        18.8546966296       20.6902478583       19.1859865945
  H        18.2079782674       19.9468402615       17.9095378004
  H        19.3512525180       21.2485810060       21.1294353343
  O        18.5088309791       21.4516856432       20.6543978676
  O        21.5431012903       19.1789888265       19.2150199160
  O        19.2439550392       17.8532857641       21.3591727010
  O        20.7090492676       20.1271340184       21.7370341286
  O        19.0421231343       20.0619165307       18.4478197462
      15
 i =        2, time =        2.000, E =       -86.0778184270
  H        18.0377582492       22.1684736482       21.1016373679
  H        22.0596984984       19.7813223232       18.7035010281
  H        20.6251529305       19.4504316534       18.9106419785
  H        19.7581679443       17.8425638851       20.5165006724
  H        18.3446774598       18.2542930214       21.2081633622
  H        20.2151007545       19.3544854313       22.1402590625
  H        21.2283554430       19.7968331733       20.9704870739
  H        18.8711659580       20.6956499587       19.1767764169
  H        18.1695597005       19.9459124201       17.9178611806
  H        19.3352672641       21.2621626308       21.1243187425
  O        18.5151710340       21.4567826574       20.6578041956
  O        21.5460374657       19.1727595473       19.2153089843
  O        19.2455531282       17.8535975135       21.3590200496
  O        20.7018385916       20.1269744193       21.7388564288
  O        19.0375488519       20.0619482773       18.4434925431
      15
 i =        3, time =        3.000, E =       -86.0763047601
  H        18.0838542527       22.1724077142       21.1033414764
  H        22.0823441592       19.7708208464       18.7088430223
  H        20.6103818272       19.4518423368       18.9120131976
  H        19.7665981265       17.8482011151       20.4933962621
  H        18.3483319706       18.2672344906       21.2031518040
  H        20.2411562835       19.3612653123       22.1530362824
  H        21.2132152278       19.7845779248       20.9522219328
  H        18.8806105679       20.7056821799       19.1707143197
  H        18.1472979918       19.9482662360       17.9378715368
  H        19.3326986935       21.2713771950       21.1301547357
  O        18.5208289563       21.4619655173       20.6604308846
  O        21.5480448118       19.1661743456       19.2160473331
  O        19.2468414381       17.8539283096       21.3591465048
  O        20.6944552877       20.1272355488       21.7411236054
  O        19.0323933007       20.0615269970       18.4382103863
      15
 i =        4, time =        4.000, E =       -86.0786679581
  H        18.1231620183       22.1888442516       21.1120994586
  H        22.1141611792       19.7674163936       18.7077680271
  H        20.6036695929       19.4483632188       18.9140919710
  H        19.7643089856       17.8558611833       20.4798116126
  H        18.3632323630       18.2766063870       21.1945451989
  H        20.2678540243       19.3643798807       22.1616336521
  H        21.1942796601       19.7709524783       20.9385241113
  H        18.8835729284       20.7192269337       19.1667480901
  H        18.1421100110       19.9536041483       17.9691508796
  H        19.3465727136       21.2742508720       21.1475401417
  O        18.5259776300       21.4667944574       20.6619083320
  O        21.5489042467       19.1594394846       19.2170728261
  O        19.2480451997       17.8543048687       21.3589912144
  O        20.6873038353       20.1280770912       21.7433176426
  O        19.0265728173       20.0607546703       18.4320963748
      15
 i =        5, time =        5.000, E =       -86.0819332856
  H        18.1542015975       22.2196768541       21.1281321370
  H        22.1477589855       19.7645742110       18.7057849575
  H        20.6079844134       19.4401403081       18.9166105153
  H        19.7504116859       17.8650029728       20.4790669145
  H        18.3862134757       18.2836545641       21.1827601478
  H        20.2915949297       19.3590799358       22.1696567646
  H        21.1703395005       19.7582219447       20.9322552004
  H        18.8814162990       20.7336982430       19.1624022389
  H        18.1483096321       19.9605542766       18.0074465341
  H        19.3709031058       21.2708221633       21.1718790237
  O        18.5310415587       21.4710954551       20.6624663607
  O        21.5488686629       19.1529700578       19.2180595817
  O        19.2494222843       17.8546712226       21.3583115508
  O        20.6806851785       20.1296702645       21.7450267000
  O        19.0203596473       20.0598943431       18.4256084784
      15
 i =        6, time =        6.000, E =       -86.0815204715
  H        18.1806189347       22.2578265919       21.1463636124
  H        22.1757011734       19.7561460094       18.7081124291
  H        20.6228230764       19.4283412569       18.9184308338
  H        19.7276787393       17.8747895487       20.4891969831
  H        18.4109541469       18.2911052644       21.1681459015
  H        20.3107928649       19.3441206429       22.1790795422
  H        21.1419477177       19.7478800701       20.9336391609
  H        18.8759646011       20.7463579722       19.1552346412
  H        18.1536775592       19.9668597294       18.0455542425
  H        19.3957993061       21.2622950561       21.1963488624
  O        18.5363699096       21.4751649290       20.6628214019
  O        21.5484160209       19.1470904807       19.2187565760
  O        19.2511989080       17.8548991794       21.3572006125
  O        20.6746678177       20.1320201117       21.7461148097
  O        19.0143993739       20.0592723103       18.4193846755
      15
 i =        7, time =        7.000, E =       -86.0786797113
  H        18.2071008040       22.2930482523       21.1601114435
  H        22.1933494267       19.7389590398       18.7174854609
  H        20.6442035061       19.4150144532       18.9176281639
  H        19.7021699702       17.8842794438       20.5030415875
  H        18.4304370946       18.3021175696       21.1512607887
  H        20.3262199002       19.3232019905       22.1892114644
  H        21.1111133465       19.7404357278       20.9403950513
  H        18.8691485613       20.7554016892       19.1439224184
  H        18.1437433383       19.9700588655       18.0761989812
  H        19.4130460405       21.2499572839       21.2152253601
  O        18.5421430400       21.4794953062       20.6637379749
  O        21.5480717321       19.1418761169       19.2191151621
  O        19.2534375950       17.8548422804       21.3560681388
  O        20.6690843292       20.1348864674       21.7467804332
  O        19.0094675415       20.0591637912       18.4139924313
      15
 i =        8, time =        8.000, E =       -86.0775411669
  H        18.2365216944       22.3177136275       21.1646611536
  H        22.1999679040       19.7133433600       18.7336846620
  H        20.6653158215       19.4027733747       18.9116497913
  H        19.6817180706       17.8926590482       20.5100179005
  H        18.4406462301       18.3184376220       21.1334016862
  H        20.3396724655       19.3028660514       22.1977525933
  H        21.0807180862       19.7354021772       20.9483227045
  H        18.8626491192       20.7604678896       19.1286465564
  H        18.1127608337       19.9687677368       18.0968599807
  H        19.4180022626       21.2348030402       21.2251052109
  O        18.5484432013       21.4844548406       20.6657242681
  O        21.5482995904       19.1371419506       19.2193083255
  O        19.2558989706       17.8544377973       21.3554980217
  O        20.6636509417       20.1379203282       21.7474518079
  O        19.0058131365       20.0596787714       18.4096022570
      15
 i =        9, time =        9.000, E =       -86.0784637911
  H        18.2695226920       22.3289200493       21.1584385471
  H        22.1991629878       19.6830446846       18.7535839112
  H        20.6790268156       19.3939902461       18.8980040021
  H        19.6722448485       17.8993179341       20.5020019447
  H        18.4428496745       18.3390513980       21.1168523034
  H        20.3525254482       19.2891293117       22.2026107194
  H        21.0537009455       19.7317082059       20.9525768791
  H        18.8575961394       20.7626649569       19.1109796926
  H        18.0697863695       19.9633205805       18.1108908274
  H        19.4094285238       21.2175088883       21.2249075328
  O        18.5553061269       21.4901717957       20.6689539134
  O        21.5493109624       19.1324981130       19.2196869188
  O        19.2581287971       17.8537871092       21.3558629664
  O        20.6581146348       20.1408358621       21.7485881709
  O        19.0027975033       20.0607217086       18.4059218230
      15
 i =       10, time =       10.000, E =       -86.0792824851
  H        18.3049001427       22.3288162739       21.1430281438
  H        22.1985126835       19.6545937452       18.7716777032
  H        20.6821504360       19.3895985810       18.8756262464
  H        19.6740919594       17.9036217277       20.4802516181
  H        18.4421661283       18.3607772200       21.1042983486
  H        20.3651690408       19.2853634381       22.2030180234
  H        21.0320380805       19.7286379206       20.9497052120
  H        18.8544780584       20.7642289037       19.0934717446
  H        18.0302222394       19.9549599753       18.1232514539
  H        19.3891708748       21.1983006345       21.2157698830
  O        18.5627166818       21.4965206818       20.6732669806
  O        21.5508140039       19.1274724950       19.2206634676
  O        19.2597784469       17.8531320751       21.3569217941
  O        20.6523532232       20.1434807612       21.7504748037
  O        18.9994315312       20.0620679796       18.4024947273
      15
 i =       11, time =       11.000, E =       -86.0787568223
  H        18.3400822936       22.3246288846       21.1229346473
  H        22.2065227181       19.6346889309       18.7822805654
  H        20.6778449831       19.3885584286       18.8458801060
  H        19.6828166570       17.9048287572       20.4545361030
  H        18.4441512385       18.3800946392       21.0978719888
  H        20.3770587146       19.2915901473       22.1998504204
  H        21.0160117078       19.7267554334       20.9394312297
  H        18.8533364210       20.7677799287       19.0789002167
  H        18.0059292749       19.9448395666       18.1371571058
  H        19.3621886058       21.1765730703       21.2011133673
  O        18.5705653291       21.5031304966       20.6781765980
  O        21.5520546635       19.1217154318       19.2225129301
  O        19.2607702734       17.8527428266       21.3579273182
  O        20.6464197843       20.1458222910       21.7530850562
  O        18.9949825586       20.0634744231       18.3989635570
      15
 i =       12, time =       12.000, E =       -86.0781371004
  H        18.3721247745       22.3271766435       21.1044813616
  H        22.2265169479       19.6255407150       18.7834811937
  H        20.6731978420       19.3886807742       18.8120118817
  H        19.6930581900       17.9023778272       20.4358080758
  H        18.4522756845       18.3946554705       21.0985770063
  H        20.3869350838       19.3045055586       22.1955128337
  H        21.0044255183       19.7278978829       20.9246467415
  H        18.8541212667       20.7752069284       19.0692134697
  H        18.0021229519       19.9335910722       18.1535883485
  H        19.3361539579       21.1505487720       21.1864295910
  O        18.5785754966       21.5094732417       20.6829450736
  O        21.5523578162       19.1152200723       19.2251639183
  O        19.2612145724       17.8528026192       21.3581190380
  O        20.6405151161       20.1479482142       21.7560838979
  O        18.9891486643       20.0647775923       18.3951651837
      15
 i =       13, time =       13.000, E =       -86.0792614786
  H        18.3995415170       22.3452825846       21.0927321680
  H        22.2535331236       19.6230007492       18.7788402836
  H        20.6749576693       19.3878439306       18.7776759218
  H        19.7010904551       17.8961078127       20.4311247634
  H        18.4669253012       18.4040318360       21.1061753869
  H        20.3931519526       19.3182658662       22.1933940666
  H        20.9955176676       19.7341978686       20.9096654290
  H        18.8569424508       20.7866703572       19.0646446901
  H        18.0172075609       19.9211532202       18.1717236161
  H        19.3190519367       21.1178739708       21.1777577531
  O        18.5863244505       21.5151577548       20.6868673752
  O        21.5515980319       19.1083790391       19.2281862794
  O        19.2613140195       17.8533466640       21.3570522067
  O        20.6349026599       20.1500791164       21.7589716011
  O        18.9820496947       20.0659678131       18.3911548510
      15
 i =       14, time =       14.000, E =       -86.0812957127
  H        18.4238153549       22.3783943046       21.0880732762
  H        22.2786168095       19.6201942985       18.7743719949
  H        20.6870757718       19.3846288461       18.7458198211
  H        19.7055083941       17.8862535058       20.4423179269
  H        18.4853664935       18.4099227673       21.1193145125
  H        20.3943097825       19.3267537730       22.1965752040
  H        20.9877977035       19.7470166444       20.8982942198
  H        18.8619900384       20.8004585095       19.0636583747
  H        18.0425717771       19.9065427078       18.1893075145
  H        19.3145965042       21.0779034479       21.1785917045
  O        18.5934723220       21.5202562095       20.6896893521
  O        21.5500879632       19.1017018468       19.2310496672
  O        19.2613239356       17.8542492060       21.3546768164
  O        20.6298048252       20.1524956870       21.7612908080
  O        18.9742407570       20.0672101124       18.3871761477
      15
 i =       15, time =       15.000, E =       -86.0815565369
  H        18.4483919644       22.4166353314       21.0867782903
  H        22.2945432976       19.6116901330       18.7749414963
  H        20.7101667646       19.3784417163       18.7181902207
  H        19.7073043233       17.8733526761       20.4659612184
  H        18.5025712052       18.4157919069       21.1358602003
  H        20.3901240313       19.3270276550       22.2059806293
  H        20.9804606039       19.7663891298       20.8926961073
  H        18.8691758172       20.8138053726       19.0637693474
  H        18.0633975305       19.8876795646       18.2032367876
  H        19.3197423596       21.0338872809       21.1879025543
  O        18.5999976035       21.5251809886       20.6917008576
  O        21.5482517348       19.0955632210       19.2333782943
  O        19.2614954828       17.8552520827       21.3513211291
  O        20.6253136028       20.1553576666       21.7628198354
  O        18.9666790843       20.0688002472       18.3835758193
      15
 i =       16, time =       16.000, E =       -86.0808834509
  H        18.4762876266       22.4483634778       21.0846135173
  H        22.2983623577       19.5950550329       18.7828612561
  H        20.7417012216       19.3694863219       18.6950034018
  H        19.7098197626       17.8581314692       20.4936740636
  H        18.5133863103       18.4254920003       21.1535270642
  H        20.3818329259       19.3211875178       22.2194024703
  H        20.9734898358       19.7909719295       20.8929642567
  H        18.8778008995       20.8240216270       19.0626073205
  H        18.0651408036       19.8622178637       18.2112002539
  H        19.3277568583       20.9920035918       21.2017432392
  O        18.6061564660       21.5302875658       20.6934124886
  O        21.5464508358       19.0901099992       19.2350513202
  O        19.2619414605       17.8560600398       21.3476354768
  O        20.6213551401       20.1585883050       21.7636654506
  O        18.9603345594       20.0710422860       18.3806358964
      15
 i =       17, time =       17.000, E =       -86.0806362142
  H        18.5089334856       22.4659302064       21.0791305655
  H        22.2919029123       19.5709504951       18.7977684934
  H        20.7764918540       19.3586896754       18.6747609979
  H        19.7178277514       17.8413681491       20.5141861423
  H        18.5157002809       18.4409594206       21.1705857544
  H        20.3716465187       19.3145646263       22.2325439703
  H        20.9675997176       19.8183375652       20.8971511110
  H        18.8865136030       20.8293642745       19.0587194569
  H        18.0454464240       19.8301758161       18.2138762679
  H        19.3326625476       20.9584476274       21.2160360118
  O        18.6122649832       21.5356945852       20.6952348993
  O        21.5449184571       19.0852578409       19.2362143416
  O        19.2624927169       17.8564981013       21.3444196619
  O        20.6177306542       20.1619681380       21.7642003832
  O        18.9554431510       20.0740309811       18.3783834761
      15
 i =       18, time =       18.000, E =       -86.0795256314
  H        18.5463405195       22.4673832840       21.0701052686
  H        22.2817508684       19.5429152007       18.8167884377
  H        20.8078510858       19.3474360367       18.6545873582
  H        19.7345206799       17.8238713879       20.5192281495
  H        18.5121435539       18.4607276857       21.1860258652
  H        20.3617793794       19.3123015980       22.2410656007
  H        20.9639998328       19.8455520107       20.9018424842
  H        18.8935848827       20.8295149275       19.0520025008
  H        18.0164153932       19.7954603205       18.2147438042
  H        19.3309702969       20.9377023633       21.2278578137
  O        18.6185663917       21.5412877872       20.6973726860
  O        21.5436828250       19.0807157031       19.2372477259
  O        19.2627794313       17.8566093830       21.3422469715
  O        20.6141996522       20.1653148307       21.7649030920
  O        18.9513512342       20.0775269206       18.3765801712
      15
 i =       19, time =       19.000, E =       -86.0775664257
  H        18.5876595569       22.4565232699       21.0593642612
  H        22.2779828203       19.5164254086       18.8352801782
  H        20.8300301302       19.3369275120       18.6316389408
  H        19.7579645655       17.8067738467       20.5098243096
  H        18.5083604642       18.4809347540       21.1991077611
  H        20.3537690420       19.3171003285       22.2421054248
  H        20.9638658771       19.8699615221       20.9035443607
  H        18.8973228028       20.8256693939       19.0437601225
  H        17.9934476704       19.7636341461       18.2175271362
  H        19.3214502971       20.9320996522       21.2355108207
  O        18.6251946819       21.5467254024       20.6998294367
  O        21.5424883898       19.0760824800       19.2386327596
  O        19.2625639822       17.8565723084       21.3411009664
  O        20.6105647616       20.1685779208       21.7661769200
  O        18.9471966762       20.0810914023       18.3748779767
      15
 i =       20, time =       20.000, E =       -86.0769470751
  H        18.6317908903       22.4422074060       21.0503598154
  H        22.2894836370       19.4960995227       18.8492154038
  H        20.8411362722       19.3274375597       18.6052572823
  H        19.7816848560       17.7917183255       20.4948778551
  H        18.5097021622       18.4977125361       21.2090114046
  H        20.3481709491       19.3284644524       22.2349577760
  H        20.9675966498       19.8899772561       20.9005930559
  H        18.8964326852       20.8201651282       19.0363334306
  H        17.9866479724       19.7391289069       18.2245400055
  H        19.3046753319       20.9417545248       21.2384380598
  O        18.6321552409       21.5514749035       20.7024283213
  O        21.5409050788       19.0710715737       19.2406672343
  O        19.2619137669       17.8565343302       21.3404767292
  O        20.6067444586       20.1718409481       21.7681855901
  O        18.9424279004       20.0842875327       18.3729493313
      15
 i =       21, time =       21.000, E =       -86.0785785334
  H        18.6780525283       22.4352698782       21.0468510338
  H        22.3171728054       19.4821269564       18.8583333873
  H        20.8439126857       19.3182143242       18.5779418545
  H        19.7988287472       17.7804281752       20.4841458796
  H        18.5190449210       18.5089416073       21.2148634114
  H        20.3444650200       19.3427289458       22.2211647139
  H        20.9743504197       19.9053950836       20.8942833205
  H        18.8902463763       20.8155712819       19.0322523486
  H        17.9989796350       19.7239427798       18.2364585663
  H        19.2831037158       20.9641953833       21.2375299674
  O        18.6392863017       21.5550246954       20.7048682798
  O        21.5387023191       19.0657456875       19.2432064060
  O        19.2610782964       17.8565251465       21.3398133397
  O        20.6028069703       20.1753042089       21.7707712751
  O        18.9368991307       20.0868204589       18.3705559624
      15
 i =       22, time =       22.000, E =       -86.0798822040
  H        18.7261829637       22.4419215013       21.0503389614
  H        22.3528723888       19.4702535051       18.8661799327
  H        20.8435932999       19.3081754473       18.5540313654
  H        19.8051914734       17.7741044753       20.4836327102
  H        18.5361663961       18.5149042428       21.2158858812
  H        20.3412075845       19.3538570298       22.2039726631
  H        20.9823228113       19.9170203402       20.8881232557
  H        18.8788187674       20.8134562520       19.0330917781
  H        18.0263563692       19.7170761388       18.2525191226
  H        19.2616300167       20.9937537785       21.2358326819
  O        18.6462404814       21.5573457097       20.7068408335
  O        21.5360562929       19.0604725992       19.2457465134
  O        19.2603395534       17.8564525440       21.3387714411
  O        20.5989438408       20.1792615233       21.7735291487
  O        18.9308581915       20.0886513912       18.3676131945
      15
 i =       23, time =       23.000, E =       -86.0783041884
  H        18.7754485222       22.4589652747       21.0583568407
  H        22.3854295333       19.4554176458       18.8769030001
  H        20.8450630453       19.2966459706       18.5374796092
  H        19.8001086186       17.7730786797       20.4944372127
  H        18.5580637956       18.5181953173       21.2115036264
  H        20.3367023867       19.3557600353       22.1868438107
  H        20.9895622194       19.9260048316       20.8858627581
  H        18.8628921532       20.8135629219       19.0386712077
  H        18.0575182977       19.7140315631       18.2708057763
  H        19.2475418855       21.0218344707       21.2388061070
  O        18.6525648203       21.5591817468       20.7081291337
  O        21.5333460618       19.0556432129       19.2477700249
  O        19.2599347600       17.8561314718       21.3373007675
  O        20.5953771694       20.1839963546       21.7760193620
  O        18.9249552314       20.0900809741       18.3642240176
      15
 i =       24, time =       24.000, E =       -86.0766623395
  H        18.8239143558       22.4771823699       21.0660024443
  H        22.4064536173       19.4344682375       18.8928809739
  H        20.8512020428       19.2836693610       18.5303250889
  H        19.7865741548       17.7766827517       20.5126713165
  H        18.5800789900       18.5228717151       21.2014498999
  H        20.3301426995       19.3459415467       22.1714321702
  H        20.9947420694       19.9333651477       20.8897601919
  H        18.8437137962       20.8140886515       19.0472409209
  H        18.0763925125       19.7074547713       18.2890116075
  H        19.2477417937       21.0400711802       21.2520698326
  O        18.6579306810       21.5616428814       20.7086630449
  O        21.5309047336       19.0514732199       19.2489927853
  O        19.2599759622       17.8553488709       21.3356462126
  O        20.5922395104       20.1895806424       21.7780035072
  O        18.9201002894       20.0916881847       18.3606219739
      15
 i =       25, time =       25.000, E =       -86.0787711076
  H        18.8690708418       22.4881263415       21.0687668746
  H        22.4125136363       19.4067466633       18.9142489627
  H        20.8623531076       19.2700152071       18.5320614295
  H        19.7709333973       17.7833344840       20.5298511467
  H        18.5980166778       18.5325556425       21.1859656854
  H        20.3222573450       19.3275124926       22.1567736298
  H        20.9975703837       19.9397801133       20.8997697102
  H        18.8227295315       20.8128193792       19.0564909781
  H        18.0717607921       19.6914144321       18.3058477349
  H        19.2634462334       21.0455721629       21.2763944284
  O        18.6624250368       21.5654481132       20.7086609119
  O        21.5289198470       19.0479635587       19.2494349980
  O        19.2603349001       17.8539810936       21.3343136617
  O        20.5894932078       20.1957557470       21.7795518699
  O        18.9168809896       20.0939862525       18.3570197104
      15
 i =       26, time =       26.000, E =       -86.0811714232
  H        18.9087939809       22.4876630546       21.0640302414
  H        22.4056377126       19.3738552939       18.9391233958
  H        20.8763319866       19.2570799193       18.5395414701
  H        19.7608815114       17.7910541977       20.5356933659
  H        18.6104280352       18.5481517143       21.1660492718
  H        20.3146726644       19.3071856004       22.1405931727
  H        20.9988262408       19.9455804671       20.9135808805
  H        18.8012877266       20.8081870152       19.0645657395
  H        18.0479735029       19.6670239017       18.3215965895
  H        19.2888194323       21.0420518463       21.3058674871
  O        18.6665639242       21.5706279721       20.7086501151
  O        21.5274004021       19.0449243249       19.2494115112
  O        19.2606258250       17.8521080658       21.3338878818
  O        20.5869753672       20.2020580010       21.7809646847
  O        18.9149159428       20.0969989647       18.3535124768
      15
 i =       27, time =       27.000, E =       -86.0798356646
  H        18.9420947925       22.4765253518       21.0513140478
  H        22.3934352943       19.3392415358       18.9639335937
  H        20.8890059961       19.2466728178       18.5475281088
  H        19.7609308929       17.7983657322       20.5248065848
  H        18.6191246920       18.5671018739       21.1434852103
  H        20.3087512093       19.2915165026       22.1211467678
  H        21.0000643723       19.9508847813       20.9273822256
  H        18.7805016830       20.7997269817       19.0705531393
  H        18.0203242296       19.6411532816       18.3368453408
  H        19.3157341596       21.0354099314       21.3321568818
  O        18.6709298270       21.5767627798       20.7091814149
  O        21.5261284511       19.0420162736       19.2494728086
  O        19.2604585690       17.8500031499       21.3346082186
  O        20.5844905928       20.2080504047       21.7826088111
  O        18.9131567111       20.1003116348       18.3501287709
      15
 i =       28, time =       28.000, E =       -86.0760309461
  H        18.9695108475       22.4599659055       21.0320920331
  H        22.3874214304       19.3071264021       18.9842928834
  H        20.8960058286       19.2405424482       18.5504854170
  H        19.7691848608       17.8047198669       20.5017354876
  H        18.6274939545       18.5849478651       21.1204803962
  H        20.3049366604       19.2844940498       22.0981153102
  H        21.0029899286       19.9558896023       20.9373033629
  H        18.7612808951       20.7880683220       19.0745125526
  H        18.0028501797       19.6206146919       18.3514909287
  H        19.3379405424       21.0300908865       21.3487598752
  O        18.6758944992       21.5832297997       20.7105715593
  O        21.5246515319       19.0388497385       19.2502376217
  O        19.2597485145       17.8480038265       21.3360634845
  O        20.5818973432       20.2134564653       21.7847677792
  O        18.9106555039       20.1034371583       18.3468887457
      15
 i =       29, time =       29.000, E =       -86.0740284830
  H        18.9932329649       22.4466750151       21.0092308894
  H        22.3968048580       19.2803083083       18.9969888538
  H        20.8954227653       19.2396672719       18.5454589790
  H        19.7798012005       17.8099934280       20.4772894584
  H        18.6383770393       18.5976256469       21.0991366335
  H        20.3027034176       19.2868750995       22.0726139276
  H        21.0086456304       19.9612289535       20.9411484256
  H        18.7444210577       20.7746922731       19.0772562146
  H        18.0030597267       19.6091417340       18.3648185670
  H        19.3519217352       21.0284559333       21.3521805094