      63
 i =        1, time =        1.000, E =      -361.6748618208
  H        17.9386896935       17.1314727014       17.9027560206
  H        20.6069812995       20.1164919308       17.8291425802
  H        21.6337387275       20.3081515785       16.6571379095
  H        20.4196574632       15.7586630010       22.2141963064
  H        19.3233108104       16.6317553637       21.3937923398
  H        19.0377855962       22.8486673340       21.1928279637
  H        19.1227270385       23.3760714963       19.6390615740
  H        17.6989394224       16.8655560066       20.3220254443
  H        17.4901191294       17.5368188433       21.6644305106
  H        20.0134740668       24.2259020981       17.5346592096
  H        21.0589723789       23.5004294980       18.4509232079
  H        23.0606807406       22.7858493502       18.3299472699
  H        22.5761955710       23.1215042432       19.8273506211
  H        20.0384893460       19.2338823042       23.6200118439
  H        19.9303228470       20.7180838388       23.3466383401
  H        19.3699378395       20.8246279908       16.6039870991
  H        19.0265612127       22.1704212670       17.3232458715
  H        24.0722450822       18.3573473030       19.1767077112
  H        22.5869926692       17.9763880102       18.6591711616
  H        21.0578569784       17.5541820219       22.2615070992
  H        22.4170179498       17.7642688702       23.2760630897
  H        15.6415482849       21.9253839825       21.2731099907
  H        17.0106130358       22.1626825648       20.5387140000
  H        23.5996368419       20.5078272019       17.8990825800
  H        24.3534880203       21.2301590304       16.7398377839
  H        19.3269113641       20.9091243531       19.4626199161
  H        20.6954196472       20.3290073192       20.0171027401
  H        21.1032972116       16.7609420494       19.7663128620
  H        20.9334887517       16.8367946225       18.1059271581
  H        20.3660057289       23.8219170379       23.0777140741
  H        21.1932803618       22.9358983047       22.0906389203
  H        23.5521395332       22.4961717882       22.0085916323
  H        22.6032018737       21.5174101009       21.1852453390
  H        21.2314021337       16.8397321562       16.0725940291
  H        20.3879587430       18.1185585747       16.4268965802
  H        17.7582295269       19.5387719404       22.9257537387
  H        17.0858288113       20.0161900503       21.5838364200
  H        22.6898664870       19.4936757667       20.1617376820
  H        22.1483766094       19.3713507350       21.7021200319
  H        17.5100819481       20.3367130711       17.7386656407
  H        17.1665579254       18.2126107882       18.6743088562
  H        16.3065206664       20.3680153868       18.7956920105
  O        17.3768640017       17.2581910833       18.7130119188
  O        20.7943049159       19.8419885486       16.8486950144
  O        20.4108358503       16.4814644566       21.5388519344
  O        18.6222906074       22.7404336921       20.3012930244
  O        17.9183245474       16.7498800564       21.2946833784
  O        20.0780115243       23.5378959841       18.1938918869
  O        22.6320984611       23.4862681993       18.8940785458
  O        19.4792276726       19.9985027973       23.9027598957
  O        18.6049181420       21.4081078133       16.8538978765
  O        23.2812325205       18.7473433689       18.7182684694
  O        21.7086539830       18.2091449437       22.7982534934
  O        16.3396925600       21.4728352318       20.7605742234
  O        23.6114051566       21.3588328903       17.3740342172
  O        20.0723193010       20.3041179219       19.2596379713
  O        21.5527957609       16.9300063360       18.9085427515
  O        20.2697037099       23.0486960080       22.4994392159
  O        22.7563108553       22.4929999047       21.4401006329
  O        20.3448312702       17.1045254830       16.4330548873
  O        17.2469536661       19.2049092488       22.1465206512
  O        22.2481096029       19.9950276841       20.8916437464
  O        16.8083868745       19.7920398719       18.2182838280
      63
 i =        2, time =        2.000, E =      -361.6695980370
  H        17.9503227918       17.1183317151       17.9239501248
  H        20.5905634176       20.1250485098       17.8030453794
  H        21.6361993437       20.2949373584       16.6767390860
  H        20.4089435736       15.7730926245       22.2275850317
  H        19.3447569450       16.6458439519       21.4226473552
  H        19.0511968940       22.8564690568       21.1973360339
  H        19.1300165233       23.3664361231       19.6129665722
  H        17.7129227990       16.8785262505       20.3565569472
  H        17.4859587275       17.5430814605       21.6673645711
  H        20.0241355004       24.2069629338       17.5396105404
  H        21.0511035669       23.5250733863       18.4361394769
  H        23.0477254786       22.7756986486       18.3258573161
  H        22.5713137294       23.0946297769       19.8156934211
  H        20.0238094099       19.2072576079       23.6528839398
  H        19.9093072103       20.7133658613       23.3351030670
  H        19.3789661564       20.8202860644       16.5844912295
  H        19.0335021982       22.2061938125       17.3181961499
  H        24.0582344226       18.3718960875       19.2014900727
  H        22.5516944096       17.9820328652       18.6486894637
  H        21.0668293453       17.5207122195       22.2659982141
  H        22.4081647647       17.7752728106       23.2911095871
  H        15.6243495625       21.9200837861       21.2653459163
  H        17.0126468602       22.1761760479       20.5518728001
  H        23.5965705028       20.5382264709       17.8912582686
  H        24.3637199206       21.2191074210       16.7525731519
  H        19.3548512836       20.9297848098       19.4478798199
  H        20.6955411878       20.3373504789       20.0189211077
  H        21.0880044566       16.7588121315       19.7499039242
  H        20.9425841413       16.8423097581       18.1191507527
  H        20.3590501750       23.8221692909       23.0464304003
  H        21.1801818491       22.9480009248       22.0813941587
  H        23.5341098151       22.5007122629       22.0282115649
  H        22.6106497461       21.5171790827       21.1848509128
  H        21.2369609665       16.8508034691       16.0492595120
  H        20.3974273326       18.1257784403       16.4146680625
  H        17.7590352696       19.5487037058       22.9236435781
  H        17.0839304487       19.9937385619       21.5923962517
  H        22.6747731126       19.4741358227       20.1463431270
  H        22.1650727112       19.3582242714       21.6899218802
  H        17.5064928692       20.3227281350       17.7371652631
  H        17.1676839233       18.2251493659       18.6697136005
  H        16.3468634428       20.3953683291       18.8053216364
  O        17.3706672167       17.2592362765       18.7184360774
  O        20.7982804408       19.8340989272       16.8543827371
  O        20.4034167192       16.4856332360       21.5381747865
  O        18.6216098150       22.7415068672       20.3034057324
  O        17.9234569936       16.7471115168       21.2981875934
  O        20.0819529065       23.5324199415       18.1922678018
  O        22.6371152653       23.4921731560       18.8971138327
  O        19.4688021332       19.9968036135       23.9015547419
  O        18.6057142563       21.4071512921       16.8574433943
  O        23.2731256686       18.7523140086       18.7098498680
  O        21.7110517420       18.2098706039       22.7920938861
  O        16.3391142925       21.4685426630       20.7589506066
  O        23.6142539818       21.3618930211       17.3751731684
  O        20.0717760374       20.3068265222       19.2524334527
  O        21.5584609659       16.9266113822       18.9086805630
  O        20.2718739763       23.0468849090       22.5015906191
  O        22.7556229796       22.4893435010       21.4418208035
  O        20.3454859927       17.1010683558       16.4322572369
  O        17.2483977989       19.2128165573       22.1435017694
  O        22.2442335072       19.9968757917       20.8902619914
  O        16.8135591785       19.7897595401       18.2221324804
      63
 i =        3, time =        3.000, E =      -361.6649901815
  H        17.9581541402       17.1054828094       17.9508957787
  H        20.5721156567       20.1304040807       17.7823958687
  H        21.6429332747       20.2833549285       16.6938283712
  H        20.3991997298       15.7893368333       22.2348791727
  H        19.3622693104       16.6618407792       21.4507848637
  H        19.0664356180       22.8662855649       21.1986249636
  H        19.1281937028       23.3433106773       19.5999741099
  H        17.7255880665       16.8901367075       20.3746678831
  H        17.4815632499       17.5592732621       21.6772254358
  H        20.0324911658       24.2034738226       17.5312590043
  H        21.0521630851       23.5483922507       18.4237627852
  H        23.0338899273       22.7688111912       18.3252450734
  H        22.5711180229       23.0707191048       19.8006264760
  H        20.0082297304       19.1839772561       23.6875503063
  H        19.8815955795       20.7014508917       23.3315722904
  H        19.3844281924       20.8216782509       16.5671523048
  H        19.0380052530       22.2308948803       17.3084991104
  H        24.0357619095       18.3875086424       19.2192648331
  H        22.5192473315       17.9899798907       18.6434095038
  H        21.0846048620       17.4879981502       22.2744306799
  H        22.4024321093       17.7802952969       23.3090047607
  H        15.6101206532       21.9127169290       21.2552047777
  H        17.0171988717       22.1893674202       20.5643627791
  H        23.5921640711       20.5591664490       17.8884966977
  H        24.3714387732       21.2097996482       16.7672578705
  H        19.3770156462       20.9565273121       19.4357053522
  H        20.6969579981       20.3441286530       20.0215946349
  H        21.0693637059       16.7555181028       19.7370072922
  H        20.9502043547       16.8488456690       18.1350362528
  H        20.3521382346       23.8329279052       23.0230294888
  H        21.1658454843       22.9595406139       22.0742642146
  H        23.5169164894       22.5055104160       22.0477093812
  H        22.6189911916       21.5123595707       21.1865576145
  H        21.2329067548       16.8639799766       16.0284120922
  H        20.4075081662       18.1245023517       16.4044534237
  H        17.7609654046       19.5583395120       22.9194954235
  H        17.0785615543       19.9791017296       21.5954602101
  H        22.6584240146       19.4554107984       20.1292232603
  H        22.1799934257       19.3458217242       21.6746430745
  H        17.5014001401       20.3120001367       17.7363784125
  H        17.1664239972       18.2457322311       18.6628379509
  H        16.3844004929       20.4297882232       18.8217307268
  O        17.3649195976       17.2596540085       18.7236395510
  O        20.8023247150       19.8260167985       16.8597736765
  O        20.3957729235       16.4895534270       21.5378385608
  O        18.6213471777       22.7433059738       20.3047975627
  O        17.9289379542       16.7438332906       21.3021923693
  O        20.0855036220       23.5261985265       18.1912942995
  O        22.6419747309       23.4979036142       18.9000638429
  O        19.4587674862       19.9954287369       23.8996440794
  O        18.6067926694       21.4064374654       16.8610363243
  O        23.2655879357       18.7572723630       18.7017753774
  O        21.7127953186       18.2111917085       22.7855403284
  O        16.3382243747       21.4643740488       20.7573333567
  O        23.6172722350       21.3653332378       17.3759630007
  O        20.0715651011       20.3091291694       19.2451654863
  O        21.5643732175       16.9232453954       18.9082154121
  O        20.2741886433       23.0444876135       22.5031565279
  O        22.7547780262       22.4858232050       21.4435668385
  O        20.3467542499       17.0980437417       16.4313001431
  O        17.2498880915       19.2202192442       22.1410212321
  O        22.2403383185       19.9986988234       20.8892901332
  O        16.8190098883       19.7870417501       18.2256002087
      63
 i =        4, time =        4.000, E =      -361.6665654116
  H        17.9637797840       17.0928817293       17.9808414063
  H        20.5509954681       20.1338188809       17.7723519832
  H        21.6545478863       20.2736793262       16.7083101053
  H        20.3905789948       15.8055575252       22.2368773798
  H        19.3707595769       16.6804559375       21.4763480333
  H        19.0823112815       22.8776166015       21.1943670789
  H        19.1178324223       23.3084198463       19.5999482438
  H        17.7357071412       16.9009925723       20.3701074622
  H        17.4806969398       17.5779847981       21.6907350496
  H        20.0375407125       24.2127474467       17.5119530346
  H        21.0641143639       23.5691915980       18.4155089395
  H        23.0191229211       22.7669033206       18.3277833973
  H        22.5749376256       23.0504740588       19.7842541991
  H        19.9910183046       19.1676902669       23.7230997729
  H        19.8506022949       20.6846289364       23.3328849812
  H        19.3841381984       20.8307927614       16.5531853397
  H        19.0383954518       22.2396475505       17.2920439098
  H        24.0055967237       18.4031454352       19.2301074380
  H        22.4927629547       18.0016359843       18.6440176387
  H        21.1107510444       17.4592267033       22.2863320753
  H        22.3981662759       17.7813344230       23.3286279422
  H        15.6000201231       21.9024603493       21.2418251706
  H        17.0212402144       22.1985670064       20.5769399583
  H        23.5858132257       20.5635825977       17.8957897799
  H        24.3777181686       21.2025723939       16.7826975298
  H        19.3925801315       20.9895278255       19.4260239963
  H        20.6978872436       20.3487814064       20.0222555261
  H        21.0486387192       16.7516708837       19.7277777296
  H        20.9535979681       16.8558008997       18.1481349787
  H        20.3450829400       23.8563772832       23.0086581474
  H        21.1547281635       22.9694969240       22.0671499678
  H        23.5013142808       22.5104546375       22.0675255797
  H        22.6281503693       21.5031744217       21.1906673312
  H        21.2197231917       16.8778673916       16.0102538766
  H        20.4168770363       18.1141475146       16.3969319906
  H        17.7641640201       19.5677304059       22.9134073367
  H        17.0679922158       19.9803813704       21.5871594161
  H        22.6388881113       19.4415726626       20.1135978192
  H        22.1921667038       19.3346429231       21.6578328411
  H        17.4980689407       20.3054600357       17.7339930847
  H        17.1644083096       18.2671682498       18.6539907692
  H        16.4220923780       20.4652869972       18.8409172157
  O        17.3594126995       17.2599164642       18.7287713499
  O        20.8065227755       19.8176618053       16.8644923792
  O        20.3882718638       16.4931852584       21.5379141798
  O        18.6215368890       22.7457877794       20.3056417032
  O        17.9345676023       16.7405329314       21.3073264120
  O        20.0886027526       23.5194894592       18.1906944079
  O        22.6467736181       23.5033303582       18.9027959048
  O        19.4489741714       19.9940227847       23.8972512926
  O        18.6083907126       21.4061478314       16.8646724241
  O        23.2583750467       18.7622097394       18.6940480454
  O        21.7140301524       18.2128305884       22.7787053330
  O        16.3371438711       21.4606293753       20.7557160243
  O        23.6204165339       21.3695720597       17.3761854315
  O        20.0718089691       20.3110698829       19.2380632202
  O        21.5705769634       16.9199402356       18.9074644336
  O        20.2763409142       23.0414607635       22.5041753147
  O        22.7537359051       22.4824434828       21.4452980669
  O        20.3486694383       17.0955757801       16.4301263234
  O        17.2515237815       19.2266263526       22.1394474752
  O        22.2366132575       20.0002353428       20.8883974041
  O        16.8243609592       19.7842089707       18.2291015607
      63
 i =        5, time =        5.000, E =      -361.6679863060
  H        17.9700041593       17.0799895863       18.0099366333
  H        20.5275958076       20.1357513841       17.7741769846
  H        21.6691887057       20.2650589613       16.7208809639
  H        20.3831008008       15.8187114168       22.2356733047
  H        19.3662882505       16.7022549848       21.4980661349
  H        19.0982104633       22.8899670771       21.1839026294
  H        19.1021178037       23.2666867847       19.6086000226
  H        17.7441140913       16.9106814985       20.3475592014
  H        17.4866023565       17.5926112278       21.7043406158
  H        20.0392999577       24.2256012269       17.4904421286
  H        21.0842021402       23.5867035919       18.4115077250
  H        23.0042595186       22.7701125855       18.3317695121
  H        22.5819598649       23.0341129618       19.7695223663
  H        19.9723921777       19.1601418290       23.7581988704
  H        19.8212864148       20.6682512690       23.3335073527
  H        19.3783763625       20.8471834162       16.5426578412
  H        19.0349987359       22.2326128428       17.2693591221
  H        23.9716406193       18.4166981273       19.2363054583
  H        22.4738590373       18.0173900722       18.6504759659
  H        21.1438377928       17.4367308737       22.3005780269
  H        22.3922759010       17.7814673874       23.3474460063
  H        15.5932805392       21.8896675005       21.2257034951
  H        17.0226317887       22.2011170653       20.5899925326
  H        23.5772878259       20.5530468864       17.9123164060
  H        24.3844114709       21.1972973774       16.7972807236
  H        19.4045637426       21.0253680485       19.4178281965
  H        20.6971591970       20.3508787497       20.0189204041
  H        21.0282448565       16.7480798768       19.7207120695
  H        20.9510422766       16.8628215687       18.1541822144
  H        20.3372112816       23.8866117634       22.9992016291
  H        21.1505667145       22.9772666783       22.0583515098
  H        23.4872102452       22.5154888822       22.0875034476
  H        22.6380862685       21.4910079258       21.1976009500
  H        21.2012246909       16.8901275905       15.9933781604
  H        20.4243245377       18.0973800335       16.3926593194
  H        17.7690103978       19.5772257929       22.9059072613
  H        17.0524068057       19.9967512140       21.5681657141
  H        22.6152831543       19.4356077575       20.1015240387
  H        22.2008364859       19.3247151672       21.6413531420
  H        17.4986179642       20.3031481691       17.7283203065
  H        17.1629898067       18.2830912672       18.6437606159
  H        16.4625967042       20.4949002535       18.8582770940
  O        17.3538770763       17.2604773221       18.7340484298
  O        20.8110204249       19.8091090991       16.8683487140
  O        20.3812253562       16.4965709545       21.5383507290
  O        18.6220102691       22.7487064571       20.3062706031
  O        17.9400447681       16.7377081139       21.3135163328
  O        20.0914222524       23.5129303106       18.1898902715
  O        22.6515636824       23.5084460193       18.9052059484
  O        19.4391816994       19.9921675306       23.8948034485
  O        18.6104619178       21.4063031353       16.8682639885
  O        23.2511484898       18.7672445272       18.6865745442
  O        21.7150586511       18.2144942074       22.7718362123
  O        16.3360639370       21.4574664769       20.7540303473
  O        23.6235617976       21.3744976924       17.3760145748
  O        20.0723440094       20.3129136600       19.2313519518
  O        21.5769855572       16.9166855516       18.9067973132
  O        20.2781044696       23.0382379399       22.5049932561
  O        22.7525066418       22.4791341379       21.4469939913
  O        20.3510469060       17.0936501622       16.4287843149
  O        17.2532561561       19.2320748616       22.1387059387
  O        22.2331813225       20.0013197982       20.8873152222
  O        16.8293269577       19.7816932677       18.2330442698
      63
 i =        6, time =        6.000, E =      -361.6628945791
  H        17.9793970557       17.0661584898       18.0350594670
  H        20.5038013313       20.1353825793       17.7847862090
  H        21.6836497107       20.2561020759       16.7326236995
  H        20.3765865757       15.8257393683       22.2336555169
  H        19.3481511031       16.7269772881       21.5152895260
  H        19.1142036980       22.9029516126       21.1683445909
  H        19.0871177903       23.2260105339       19.6168620033
  H        17.7526833905       16.9179278393       20.3184093994
  H        17.5008929351       17.5991958373       21.7153723187
  H        20.0382206792       24.2330176217       17.4754056907
  H        21.1066084450       23.6002957543       18.4108497102
  H        22.9907724979       22.7770926234       18.3344431368
  H        22.5914076155       23.0216491583       19.7592873422
  H        19.9537735718       19.1605964498       23.7912614440
  H        19.7984793220       20.6582471555       23.3275324588
  H        19.3698271311       20.8680999723       16.5343820639
  H        19.0300995662       22.2151506367       17.2433781872
  H        23.9395246480       18.4255954138       19.2417473706
  H        22.4626877043       18.0367032140       18.6620303474
  H        21.1814620751       17.4215018089       22.3154148668
  H        22.3822633728       17.7835611766       23.3630488891
  H        15.5874488669       21.8756596588       21.2084241433
  H        17.0206453841       22.1960992119       20.6035008114
  H        23.5670220042       20.5363057126       17.9321410234
  H        24.3932210222       21.1935419845       16.8097523529
  H        19.4173480629       21.0589364067       19.4098328919
  H        20.6946424782       20.3501843566       20.0110509480
  H        21.0109585459       16.7454418028       19.7138745018
  H        20.9434039990       16.8699214728       18.1521032512
  H        20.3279959339       23.9142220314       22.9888695680
  H        21.1543722331       22.9827648537       22.0476296858
  H        23.4738077422       22.5206226234       22.1069086585
  H        22.6486799554       21.4778805923       21.2077125051
  H        21.1832459163       16.8980398791       15.9751498256
  H        20.4289834129       18.0796938448       16.3920119267
  H        17.7759370114       19.5873595204       22.8976821989
  H        17.0341262859       20.0194342058       21.5453499043
  H        22.5878255155       19.4389927263       20.0936561550
  H        22.2054949657       19.3157248160       21.6270317482
  H        17.5030288418       20.3036646675       17.7191188206
  H        17.1629209405       18.2897513672       18.6328582091
  H        16.5067995556       20.5134492235       18.8708295817
  O        17.3481054429       17.2616286177       18.7396509043
  O        20.8159099605       19.8005692306       16.8714129603
  O        20.3747575904       16.4998188569       21.5390302110
  O        18.6223749754       22.7516166519       20.3072012727
  O        17.9450944310       16.7357392249       21.3201897048
  O        20.0943014709       23.5071328303       18.1883784754
  O        22.6563441776       23.5133402423       18.9072578334
  O        19.4291254815       19.9895669024       23.8928037023
  O        18.6126843589       21.4067432967       16.8716676047
  O        23.2435649709       18.7725695628       18.6791854184
  O        21.7162062448       18.2159738726       22.7652134153
  O        16.3351939497       21.4548699264       20.7521700897
  O        23.6265438285       21.3795525138       17.3759214378
  O        20.0728494458       20.3150237311       19.2251756040
  O        21.5833429851       16.9134340776       18.9064315225
  O        20.2794269235       23.0354257153       22.5059686494
  O        22.7511456417       22.4757815383       21.4486629551
  O        20.3535548706       17.0920992803       16.4274114729
  O        17.2548943783       19.2370770853       22.1383219973
  O        22.2300891064       20.0018970356       20.8858804214
  O        16.8338558501       19.7798965402       18.2376284338
      63
 i =        7, time =        7.000, E =      -361.6561535193
  H        17.9926058882       17.0512060261       18.0555587394
  H        20.4824824763       20.1311509607       17.7988612093
  H        21.6950177058       20.2456433787       16.7445186063
  H        20.3706507143       15.8249806140       22.2321470363
  H        19.3191404544       16.7531598690       21.5277815126
  H        19.1309242751       22.9163542165       21.1501464234
  H        19.0802628224       23.1949571995       19.6129730825
  H        17.7627861369       16.9216578724       20.2933502695
  H        17.5233544016       17.5967403911       21.7224927585
  H        20.0347572941       24.2297963188       17.4718530446
  H        21.1253920593       23.6093962650       18.4124246353
  H        22.9802831530       22.7856943627       18.3328023908
  H        22.6027226276       23.0132794413       19.7552822356
  H        19.9377584276       19.1658789338       23.8207736468
  H        19.7844384215       20.6567860768       23.3123333464
  H        19.3628556931       20.8891644108       16.5261107792
  H        19.0278256966       22.1974070991       17.2189947250
  H        23.9139760065       18.4279835393       19.2500369460
  H        22.4580566894       18.0582411577       18.6773573244
  H        21.2203117442       17.4128148233       22.3284760234
  H        22.3674772656       17.7894259707       23.3743701899
  H        15.5794175692       21.8621313022       21.1919209771
  H        17.0161141276       22.1845938937       20.6171328494
  H        23.5559142128       20.5229236638       17.9484422912
  H        24.4046862850       21.1909221277       16.8198919747
  H        19.4342004403       21.0858676808       19.4011089346
  H        20.6912845596       20.3466482690       19.9996190197
  H        20.9990355555       16.7440899592       19.7059960783
  H        20.9342434350       16.8773344094       18.1441502351
  H        20.3173458638       23.9317026487       22.9735391239
  H        21.1638406803       22.9862254980       22.0365177111
  H        23.4600942276       22.5259510357       22.1247856641
  H        22.6596416139       21.4657993927       21.2210919811
  H        21.1709063973       16.8994429377       15.9529758480
  H        20.4305293044       18.0677816041       16.3951550006
  H        17.7851631042       19.5985883152       22.8891763174
  H        17.0160942994       20.0386212349       21.5266963680
  H        22.5576953549       19.4515164882       20.0891681299
  H        22.2058743304       19.3072908174       21.6162364997
  H        17.5093587176       20.3044437382       17.7075831133
  H        17.1643708927       18.2862512488       18.6219673951
  H        16.5538548299       20.5187594225       18.8779770770
  O        17.3420588368       17.2634414611       18.7456209133
  O        20.8211642702       19.7922786502       16.8739284345
  O        20.3687825370       16.5030461369       21.5398629803
  O        18.6221200057       22.7540080044       20.3090263570
  O        17.9495759242       16.7348088497       21.3267305447
  O        20.0975911624       23.5024574688       18.1859059246
  O        22.6610730741       23.5181299694       18.9089996493
  O        19.4185866486       19.9862998415       23.8915527028
  O        18.6145164146       21.4071085631       16.8746996039
  O        23.2354338508       18.7783649037       18.6717258318
  O        21.7177330891       18.2172160662       22.7590679299
  O        16.3346824765       21.4526728019       20.7500355873
  O        23.6292423365       21.3841209657       17.3763625570
  O        20.0730034617       20.3177055989       19.2195514562
  O        21.5892775331       16.9101274560       18.9063495536
  O        20.2804502652       23.0334734342       22.5072426947
  O        22.7497277249       22.4722680091       21.4503341187
  O        20.3558770447       17.0906473503       16.4261589487
  O        17.2562257689       19.2422065597       22.1377680118
  O        22.2273111577       20.0020129570       20.8840672338
  O        16.8381160017       19.7791024725       18.2427948462
      63
 i =        8, time =        8.000, E =      -361.6550041920
  H        18.0077502105       17.0357367581       18.0734704260
  H        20.4664591171       20.1216470526       17.8114181603
  H        21.7018923073       20.2332445989       16.7571338410
  H        20.3647762778       15.8170135320       22.2305421367
  H        19.2838458477       16.7784228801       21.5355205215
  H        19.1492540659       22.9301207461       21.1322151980
  H        19.0852939742       23.1774829473       19.5902425024
  H        17.7747758951       16.9215329897       20.2791782332
  H        17.5520254849       17.5871582262       21.7258452836
  H        20.0291332507       24.2153107206       17.4803810193
  H        21.1364278991       23.6135880397       18.4154224652