      30
 i =        1, time =        1.000, E =      -172.1965248333
  H        17.2226860171       20.5911155435       18.6952190507
  H        21.0262034714       17.4356259236       19.7936220309
  H        22.1853335630       18.2903787652       20.5853217240
  H        19.4312270286       15.7202861348       19.8306428806
  H        18.7589973013       16.7790653792       18.8315533704
  H        18.8065273969       24.2561304313       21.3193960281
  H        19.7526022588       23.5808473195       20.2393633787
  H        17.6986968995       18.3726832773       17.8691841660
  H        16.9113115034       17.3032038856       17.1096099742
  H        21.1709850425       22.9386552967       18.1301569242
  H        20.3979917315       21.8327723672       18.6731849148
  H        18.5947309733       18.5588580923       21.4389036909
  H        17.5524922396       19.4701591816       20.7514378025
  H        20.9854499658       19.4728249932       19.3515460994
  H        20.0931550316       20.4249531830       20.3292510439
  H        23.0830719227       19.7573341879       22.8734397668
  H        21.6838424031       20.3205988800       22.2047479640
  H        19.7003683839       21.8694979922       21.9243919789
  H        19.2256220465       20.3758619883       22.1974492308
  H        18.6356890833       19.9772137211       18.9668402578
  O        17.6417900507       19.7515670374       18.9514154955
  O        21.7694370994       18.1322658524       19.6675675257
  O        19.3917931276       16.7265993448       19.6050671222
  O        19.3060353010       23.4441133008       21.1476973649
  O        17.8295810597       17.4970302912       17.3982873848
  O        20.3580568778       22.8675376278       18.6452690423
  O        17.9520499897       19.2802105890       21.6645550295
  O        20.1857682756       20.1857261006       19.3683995787
  O        22.5783628453       19.9492024966       22.0799882298
  O        20.0484303908       20.9207777921       22.0236186788
      30
 i =        2, time =        2.000, E =      -172.1940196077
  H        17.2142966244       20.6219725255       18.7070252728
  H        21.0236610503       17.4615034113       19.8060184626
  H        22.2132865836       18.3115123437       20.5938388376
  H        19.4332917824       15.7346030835       19.8106776610
  H        18.7929131422       16.7936627418       18.8194867534
  H        18.7832752469       24.2415181963       21.3229383775
  H        19.7156470913       23.5890425252       20.2452014811
  H        17.6905237470       18.4129663224       17.8828186398
  H        16.9167788808       17.2966051106       17.1098877671
  H        21.1507231112       22.9505144858       18.1296395072
  H        20.3904473116       21.8506271365       18.6560750065
  H        18.5789386052       18.5435444107       21.4294975197
  H        17.5485094986       19.4616261740       20.7524240269
  H        20.9706059240       19.4695651147       19.3523794670
  H        20.0675646963       20.3998490280       20.3320243116
  H        23.0718089215       19.7525731149       22.8650307991
  H        21.6878520449       20.3302231069       22.1807604792
  H        19.7123939471       21.8914751143       21.9232494904
  H        19.1936808809       20.3703659499       22.1889461465
  H        18.6525224170       19.9663074893       18.9750069604
  O        17.6432497824       19.7513353248       18.9507296556
  O        21.7731133340       18.1278205248       19.6727723267
  O        19.3930407288       16.7338460172       19.6093851176
  O        19.3059657197       23.4449945358       21.1471475960
  O        17.8216667984       17.4956959157       17.3903189203
  O        20.3537983629       22.8623275680       18.6434120034
  O        17.9563963310       19.2791486654       21.6613033617
  O        20.1933093515       20.1837883724       19.3727926120
  O        22.5790094195       19.9483695962       22.0840868931
  O        20.0488078163       20.9198194408       22.0216032675
      30
 i =        3, time =        3.000, E =      -172.1923466451
  H        17.2099670040       20.6441402292       18.7201944855
  H        21.0249548318       17.4928177815       19.8172276927
  H        22.2320549346       18.3309554861       20.5867425365
  H        19.4338210759       15.7657207379       19.7869956539
  H        18.8254991608       16.8097894474       18.8040706727
  H        18.7584272784       24.2293293827       21.3276436317
  H        19.6783144586       23.5932911912       20.2532449644
  H        17.6841774619       18.4406840975       17.8894582733
  H        16.9182192411       17.2875314478       17.1088973281
  H        21.1425363942       22.9717434723       18.1218837405
  H        20.3765622524       21.8706496868       18.6465114227
  H        18.5595855401       18.5295656010       21.4208001246
  H        17.5483820622       19.4528502447       20.7586043487
  H        20.9467026714       19.4690683905       19.3553210131
  H        20.0452099477       20.3773449393       20.3402902193
  H        23.0620517994       19.7479718754       22.8724763387
  H        21.6853020134       20.3437616680       22.1653611674
  H        19.7297221977       21.9021571061       21.9220440194
  H        19.1691356179       20.3707461407       22.1768272100
  H        18.6702347940       19.9536132890       18.9844783929
  O        17.6445058306       19.7516969742       18.9498467286
  O        21.7771722888       18.1234295786       19.6789884108
  O        19.3943891977       16.7398934050       19.6141822726
  O        19.3060867732       23.4458326374       21.1463674918
  O        17.8138836750       17.4952806714       17.3830482884
  O        20.3492019072       22.8565069845       18.6415410323
  O        17.9607320056       19.2776654794       21.6577996639
  O        20.2010575450       20.1816700785       19.3764693296
  O        22.5799448652       19.9471139392       22.0866085382
  O        20.0483884075       20.9193275983       22.0197612056
      30
 i =        4, time =        4.000, E =      -172.1928287679
  H        17.2131867334       20.6517726626       18.7358533148
  H        21.0252888112       17.5239402290       19.8293571512
  H        22.2407996634       18.3477952984       20.5647989759
  H        19.4336850240       15.8022192282       19.7624942916
  H        18.8560204151       16.8278206122       18.7851239862
  H        18.7330049441       24.2177911306       21.3333940490
  H        19.6445650978       23.5948561828       20.2553123848
  H        17.6795889342       18.4496097380       17.8857642016
  H        16.9114234365       17.2755147383       17.1057356156
  H        21.1444849574       23.0013201528       18.1080651807
  H        20.3577641645       21.8839494677       18.6439316273
  H        18.5383391161       18.5155023275       21.4130970955
  H        17.5504571120       19.4449601975       20.7673621830
  H        20.9187980338       19.4680481679       19.3601128948
  H        20.0271629764       20.3574793582       20.3525442543
  H        23.0536079509       19.7435617264       22.8961302839
  H        21.6789441588       20.3596980753       22.1585526387
  H        19.7521691955       21.8996801351       21.9208133848
  H        19.1561840682       20.3792238383       22.1606164413
  H        18.6857437196       19.9395140475       18.9946653927
  O        17.6455740004       19.7529867658       18.9487080973
  O        21.7819856292       18.1194449027       19.6861012171
  O        19.3957927330       16.7454544120       19.6192857416
  O        19.3060870252       23.4466749443       21.1458924062
  O        17.8064792596       17.4962275614       17.3767790991
  O        20.3443192088       22.8507260765       18.6396090661
  O        17.9650193049       19.2757956140       21.6542305155
  O        20.2085817244       20.1796047897       19.3795659561
  O        22.5810020334       19.9455128907       22.0875163147
  O        20.0468993661       20.9192468808       22.0181157015
      30
 i =        5, time =        5.000, E =      -172.1945300956
  H        17.2245509210       20.6446233049       18.7536529468
  H        21.0195784003       17.5496821956       19.8444387256
  H        22.2415515494       18.3623678381       20.5338547751
  H        19.4339961661       15.8270627165       19.7404931572
  H        18.8851214010       16.8479505412       18.7645926301
  H        18.7086481528       24.2046594327       21.3396996864
  H        19.6169300850       23.5949086885       20.2450793635
  H        17.6761937631       18.4382361394       17.8709046585
  H        16.8970983023       17.2610822691       17.1009619107
  H        21.1486856325       23.0359739225       18.0933544156
  H        20.3361855848       21.8829414676       18.6470415558
  H        18.5170387331       18.4995677351       21.4065763708
  H        17.5523940184       19.4392617521       20.7748949283
  H        20.8932675812       19.4617645894       19.3661740876
  H        20.0147075589       20.3400334583       20.3653003043
  H        23.0422322117       19.7410750481       22.9288791386
  H        21.6735969210       20.3754578081       22.1598905023
  H        19.7782837787       21.8864141494       21.9192852886
  H        19.1556033354       20.3956643138       22.1408442225
  H        18.6963217721       19.9245218912       19.0049223853
  O        17.6466088347       19.7551927886       18.9473523793
  O        21.7877625761       18.1161030128       19.6936532052
  O        19.3971134360       16.7515996881       19.6243559680
  O        19.3057071001       23.4476025403       21.1461627782
  O        17.7994443015       17.4986106616       17.3715424394
  O        20.3395231518       22.8456757928       18.6373795301
  O        17.9692491165       19.2735963124       21.6508513133
  O        20.2153956285       20.1779340443       19.3823684038
  O        22.5821458045       19.9436051208       22.0872755406
  O        20.0443494701       20.9194093832       22.0166607836
      30
 i =        6, time =        6.000, E =      -172.1972603271
  H        17.2418370345       20.6281191649       18.7721075567
  H        21.0057198073       17.5678227078       19.8636567658
  H        22.2394129859       18.3767967032       20.5046600318
  H        19.4355784007       15.8272130194       19.7228069837
  H        18.9140592953       16.8699649635       18.7456880523
  H        18.6867012998       24.1884357344       21.3459666911
  H        19.5951276297       23.5936188866       20.2226883343
  H        17.6730966278       18.4091787339       17.8461991391
  H        16.8803635277       17.2458060959       17.0963716743
  H        21.1468168509       23.0711597996       18.0833466816
  H        20.3142538231       21.8665747673       18.6542729307
  H        18.4968864843       18.4805833326       21.4014653707
  H        17.5520729360       19.4368012940       20.7777801972
  H        20.8756871273       19.4458396152       19.3728447082
  H        20.0089780968       20.3249157703       20.3749039619
  H        23.0231836734       19.7425532441       22.9611050630
  H        21.6737226472       20.3884781132       22.1685074545
  H        19.8056113038       21.8689098728       21.9168408726
  H        19.1648309942       20.4179445702       22.1188248827
  H        18.6999316096       19.9092867367       19.0146293537
  O        17.6478704649       19.7579534858       18.9458954851
  O        21.7943183207       18.1133442074       19.7009028061
  O        19.3982073047       16.7591641752       19.6290643258
  O        19.3048818114       23.4487070232       21.1472148498
  O        17.7925249027       17.5021658658       17.3671240851
  O        20.3351883868       22.8417032096       18.6346210531
  O        17.9734387776       19.2711076381       21.6478716372
  O        20.2211110242       20.1769602681       19.3851674914
  O        22.5834033285       19.9414077045       22.0865411233
  O        20.0410147334       20.9195229162       22.0153820980
      30
 i =        7, time =        7.000, E =      -172.1974422070
  H        17.2603790466       20.6128583513       18.7889924357
  H        20.9865022422       17.5799477591       19.8868980976
  H        22.2410490032       18.3946957766       20.4899742967
  H        19.4384093694       15.8057605748       19.7086270695
  H        18.9438500675       16.8932007772       18.7314974706
  H        18.6675484778       24.1690117786       21.3517529383
  H        19.5767947444       23.5901103816       20.1947976031
  H        17.6689328196       18.3705291030       17.8158198645
  H        16.8674405511       17.2315777285       17.0939417280
  H        21.1340628030       23.1026818982       18.0813664200
  H        20.2944847354       21.8415195429       18.6641005034
  H        18.4779843916       18.4587453584       21.3981167886
  H        17.5486441791       19.4379229314       20.7747784826
  H        20.8680443723       19.4193647502       19.3795755717
  H        20.0105723335       20.3123048475       20.3789610296
  H        22.9940658648       19.7490763534       22.9854451269
  H        21.6818659959       20.3970078883       22.1830235100
  H        19.8313306166       21.8565855879       21.9125566924
  H        19.1778052476       20.4421300618       22.0963350235
  H        18.6956100889       19.8945738061       19.0232830405
  O        17.6496796191       19.7605851558       18.9445019868
  O        21.8010520426       18.1107916856       19.7070484743
  O        19.3990137131       16.7679826190       19.6332560283
  O        19.3037423008       23.4500513215       21.1486576645
  O        17.7854362637       17.5062507531       17.3630919452
  O        20.3314594984       22.8386430639       18.6312523742
  O        17.9775994418       19.2683264137       21.6453374054
  O        20.2256251048       20.1767393743       19.3881506348
  O        22.5847811236       19.9389453081       22.0858629753
  O        20.0374191277       20.9192447387       22.0142732205
      30
 i =        8, time =        8.000, E =      -172.1940678153
  H        17.2749040088       20.6109514192       18.8022207254
  H        20.9678651902       17.5895749950       19.9130671271
  H        22.2500845248       18.4186422740       20.4966311873
  H        19.4417946347       15.7787356310       19.6959887617
  H        18.9747935664       16.9167719726       18.7238749863
  H        18.6504277837       24.1476120649       21.3569146833
  H        19.5594002553       23.5832593896       20.1700113793
  H        17.6615950701       18.3377591100       17.7877659340
  H        16.8625328812       17.2197217897       17.0948766308
  H        21.1103420386       23.1278811015       18.0875529438
  H        20.2792940126       21.8174720870       18.6751569708
  H        18.4595018190       18.4356441855       21.3969536753
  H        17.5430017872       19.4420938838       20.7675689561
  H        20.8681135713       19.3862483721       19.3859431836
  H        20.0193526938       20.3026268911       20.3771064599
  H        22.9555475600       19.7603365608       22.9987496137
  H        21.6979088915       20.4005878913       22.2015279097
  H        19.8533629414       21.8575308209       21.9055516971
  H        19.1856411203       20.4630979979       22.0751139947
  H        18.6840172047       19.8812341472       19.0305889191
  O        17.6522766597       19.7623028509       18.9433213080
  O        21.8073457642       18.1080309129       19.7117200302
  O        19.3995679682       16.7770839636       19.6369352990
  O        19.3025089421       23.4516236406       21.1499473518
  O        17.7780736144       17.5097897466       17.3588047623
  O        20.3281862088       22.8360374398       18.6273891204
  O        17.9816988975       19.2652131256       21.6430959080
  O        20.2291562837       20.1770019410       19.3913541977
  O        22.5862610226       19.9362424943       22.0855571621
  O        20.0342337285       20.9184029433       22.0133372323
      30
 i =        9, time =        9.000, E =      -172.1922059500
  H        17.2832801128       20.6278522295       18.8111697136
  H        20.9556148819       17.5997754582       19.9407486656
  H        22.2635285180       18.4472584860       20.5196073243
  H        19.4449869897       15.7619409601       19.6835007768
  H        19.0063911527       16.9399411969       18.7228825362
  H        18.6337684884       24.1261754223       21.3615782933
  H        19.5414044457       23.5723991971       20.1547936047
  H        17.6485819374       18.3297983620       17.7717425240
  H        16.8661903649       17.2103990645       17.0991760597
  H        21.0802559027       23.1463302545       18.0988171151
  H        20.2706884241       21.8021711087       18.6862928417
  H        18.4403143034       18.4135060318       21.3983007328
  H        17.5372679836       19.4481367567       20.7597453523
  H        20.8717631689       19.3530685559       19.3915700463
  H        20.0344692998       20.2964946900       20.3712851326
  H        22.9109717853       19.7746841048       23.0024928452
  H        21.7188421751       20.4002946870       22.2216799500
  H        19.8712142043       21.8729448005       21.8955999428
  H        19.1800861745       20.4765704451       22.0562189779
  H        18.6680358751       19.8701843496       19.0365559681
  O        17.6555645194       19.7627272749       18.9423946356
  O        21.8130059132       18.1049445696       19.7153246968
  O        19.3999585627       16.7855114040       19.6401965285
  O        19.3013975641       23.4533362824       21.1506470643
  O        17.7705849498       17.5115687452       17.3535705062
  O        20.3249428773       22.8334058983       18.6233370922
  O        17.9856552699       19.2617244630       21.6408785722
  O        20.2320844237       20.1773000685       19.3946603872
  O        22.5878316870       19.9333125098       22.0856684634
  O        20.0320092414       20.9172108239       22.0125756767
      30
 i =       10, time =       10.000, E =      -172.1926116374
  H        17.2884453610       20.6574025210       18.8170338330
  H        20.9534374277       17.6121160382       19.9686634014
  H        22.2746567556       18.4761388521       20.5469699331
  H        19.4475201221       15.7642838428       19.6706877860
  H        19.0374494459       16.9624153451       18.7267346804
  H        18.6159958507       24.1064040057       21.3659209286
  H        19.5223810394       23.5575779501       20.1519399464
  H        17.6289624958       18.3535070675       17.7711425558
  H        16.8748508259       17.2023866367       17.1056480674
  H        21.0521014872       23.1599409600       18.1094797896
  H        20.2700310335       21.7994505174       18.6965918426
  H        18.4196687165       18.3941847308       21.4022185657
  H        17.5337343223       19.4546881793       20.7549817216
  H        20.8753843727       19.3260031941       19.3960825117
  H        20.0545916255       20.2946313568       20.3654461641
  H        22.8655361501       19.7894236952       23.0023974651
  H        21.7392439118       20.3986128090       22.2408909784
  H        19.8855702709       21.8961530462       21.8833987945
  H        19.1591803554       20.4818950359       22.0397043722
  H        18.6528948695       19.8623580231       19.0415540703
  O        17.6589925166       19.7621996185       18.9416260906
  O        21.8182056978       18.1017131454       19.7187063283
  O        19.4002926641       16.7927272509       19.6432012796
  O        19.3005578044       23.4550759273       21.1505475265
  O        17.7632754429       17.5112334264       17.3471781380
  O        20.3211047108       22.8303619283       18.6195399712
  O        17.9893614718       19.2578495350       21.6384316995
  O        20.2347800438       20.1772064032       19.3978289992
  O        22.5895084509       19.9301485549       22.0859832817
  O        20.0308429346       20.9161429702       22.0119813108
      30
 i =       11, time =       11.000, E =      -172.1910685279
  H        17.2955645245       20.6873475168       18.8215758107
  H        20.9623796694       17.6266284762       19.9959199346
  H        22.2778909243       18.5009064706       20.5680915860
  H        19.4492682350       15.7871111744       19.6577128839
  H        19.0663629874       16.9844333111       18.7323142277
  H        18.5964606084       24.0888909158       21.3698671738
  H        19.5027452843       23.5395386298       20.1603854645
  H        17.6047744710       18.3954707434       17.7791730699
  H        16.8817974605       17.1933864791       17.1123770676
  H        21.0345805869       23.1717767370       18.1135628015
  H        20.2779700635       21.8091495812       18.7053594528
  H        18.3975551863       18.3784168259       21.4084260889
  H        17.5339552589       19.4606168351       20.7555819317
  H        20.8767022093       19.3093571830       19.3991078369
  H        20.0783391673       20.2977208339       20.3642443759
  H        22.8247461422       19.8015050989       23.0062975225
  H        21.7530326657       20.3985884992       22.2565060515
  H        19.8972331855       21.9174755808       21.8701792671
  H        19.1291300204       20.4823734110       22.0250536586
  H        18.6449089453       19.8585188962       19.0462076250
  O        17.6618223661       19.7614503047       18.9408647290
  O        21.8232171649       18.0986027185       19.7226119451
  O        19.4006709183       16.7986453554       19.6461547206
  O        19.3000251062       23.4567644003       21.1497024661
  O        17.7564668446       17.5097838766       17.3401413798
  O        20.3160643904       22.8266953513       18.6164243070
  O        17.9927178485       19.2536331032       21.6356124195
  O        20.2375141310       20.1764144982       19.4005840668
  O        22.5913196877       19.9267356697       22.0861522788
  O        20.0303181600       20.9156000210       22.0115332456
      30
 i =       12, time =       12.000, E =      -172.1891754772
  H        17.3084321842       20.7073468470       18.8259560479
  H        20.9808644377       17.6420367966       20.0222051598
  H        22.2707131326       18.5188381678       20.5768821727
  H        19.4504720688       15.8243682733       19.6450572597
  H        19.0916477195       17.0066137240       18.7363690652
  H        18.5758853908       24.0728851884       21.3729199672
  H        19.4834819648       23.5195251151       20.1753306662
  H        17.5792729887       18.4362462262       17.7863870358
  H        16.8804156319       17.1811224841       17.1177226052
  H        21.0312058365       23.1832946470       18.1087202682
  H        20.2945123439       21.8272722691       18.7121933763
  H        18.3747161888       18.3655556110       21.4163325575
  H        17.5382646044       19.4652911689       20.7617471160
  H        20.8745827132       19.3053783330       19.4002769454
  H        20.1047783483       20.3061614208       20.3707675602
  H        22.7924083741       19.8085850653       23.0194791756
  H        21.7563505566       20.4022467879       22.2659463957
  H        19.9066023165       21.9292095734       21.8571631403
  H        19.0997794278       20.4824504814       22.0118453511
  H        18.6485360417       19.8589032445       19.0510459052
  O        17.6635384766       19.7611148413       18.9399969486
  O        21.8283040601       18.0958407995       19.7274719150
  O        19.4011556745       16.8036173079       19.6492443755
  O        19.2997049148       23.4583853122       21.1484362454
  O        17.7504049623       17.5086011585       17.3331660126
  O        20.3095780180       22.8225391865       18.6141439096
  O        17.9956620571       19.2491772221       21.6324296214
  O        20.2404305815       20.1747625829       19.4027606883
  O        22.5932548855       19.9230900428       22.0859804236
  O        20.0298123693       20.9157715923       22.0111925290
      30
 i =       13, time =       13.000, E =      -172.1885422487
  H        17.3281874575       20.7124595234       18.8304698409
  H        21.0048852251       17.6559884160       20.0478473681
  H        22.2536108133       18.5291663783       20.5717602673
  H        19.4517746090       15.8626416669       19.6331467156
  H        19.1124584441       17.0295609805       18.7370523603
  H        18.5559534021       24.0568680228       21.3742777086
  H        19.4658469186       23.4989137535       20.1890101315
  H        17.5551220447       18.4624608069       17.7866347415
  H        16.8687183144       17.1649376147       17.1214068594
  H        21.0376999846       23.1925774710       18.0981019295
  H        20.3192579979       21.8463224655       18.7171633854
  H        18.3523365381       18.3538661419       21.4251687117
  H        17.5456719207       19.4686967510       20.7714073459
  H        20.8688159009       19.3142890837       19.3992389188
  H        20.1336058027       20.3198093870       20.3846086410
  H        22.7695161786       19.8098001585       23.0405451213
  H        21.7497250380       20.4092699017       22.2669411783
  H        19.9137062361       21.9276936355       21.8452468915
  H        19.0794071819       20.4851969727       22.0000099673
  H        18.6635874981       19.8629184000       19.0561220918
  O        17.6640974629       19.7615354671       18.9389889474
  O        21.8337173463       18.0935898804       19.7333853240
  O        19.4017401133       16.8084485793       19.6525673090
  O        19.2994166457       23.4599658005       21.1472900185
  O        17.7450758015       17.5085835474       17.3266985580
  O        20.3019156211       22.8184610440       18.6124609984
  O        17.9981949569       19.2446150294       21.6290428897
  O        20.2435448345       20.1722466095       19.4044211917
  O        22.5952009114       19.9192945313       22.0856828658
  O        20.0288158248       20.9166715715       22.0109091619
      30
 i =       14, time =       14.000, E =      -172.1895152234
  H        17.3534556164       20.7036376438       18.8346960387
  H        21.0288173203       17.6654937939       20.0736028505
  H        22.2297865299       18.5332849854       20.5554125521
  H        19.4540616030       15.8848062988       19.6219037141
  H        19.1287856511       17.0533740036       18.7348546087
  H        18.5383058428       24.0394916519       21.3731598493
  H        19.4508522875       23.4787567771       20.1934061191
  H        17.5340678037       18.4678507654       17.7773390301
  H        16.8509901967       17.1464975599       17.1246542913
  H        21.0458437702       23.1960383715       18.0876142767
  H        20.3517353963       21.8573849536       18.7208708846
  H        18.3315213207       18.3413573228       21.4341821616
  H        17.5541428182       19.4713688776       20.7806509422
  H        20.8603135905       19.3340215557       19.3956876057
  H        20.1647928516       20.3378811691       20.4019972631
  H        22.7549114749       19.8056443897       23.0624794211
  H        21.7375605523       20.4171647858       22.2579947454
  H        19.9183267056       21.9136262639       21.8348369141
  H        19.0725731109       20.4916763093       21.9897496696
  H        18.6853149672       19.8691894611       19.0609766549
  O        17.6639040355       19.7627338516       18.9378883014
  O        21.8396522094       18.0919103162       19.7401364018
  O        19.4023485693       16.8142030044       19.6561002732
  O        19.2989905211       23.4615413391       21.1468262865
  O        17.7401110838       17.5100282947       17.3208787820
  O        20.2936065261       22.8152202573       18.6109333097
  O        18.0003921026       19.2400602000       21.6257229441
  O        20.2467568001       20.1690464749       19.4058414151
  O        22.5969344772       19.9154949597       22.0857991607
  O        20.0270564256       20.9181676505       22.0106387289
      30
 i =       15, time =       15.000, E =      -172.1926484672
  H        17.3808416401       20.6875299232       18.8376658247
  H        21.0474104385       17.6678807799       20.0999861929
  H        22.2048984406       18.5352149613       20.5349965072
  H        19.4578326494       15.8813730708       19.6107205484
  H        19.1412476174       17.0773805868       18.7321587826
  H        18.5235805005       24.0202890553       21.3691328799
  H        19.4386580013       23.4595440324       20.1848812943
  H        17.5170231549       18.4514079723       17.7583750362
  H        16.8346962133       17.1287405635       17.1292019483
  H        21.0487398038       23.1912883216       18.0821296564
  H        20.3913834906       21.8550832696       18.7240642001
  H        18.3128088047       18.3268545171       21.4428134657
  H        17.5613806685       19.4740421831       20.7850331079
  H        20.8516606508       19.3597197019       19.3893825459
  H        20.1980700594       20.3590770774       20.4177870683
  H        22.7466712967       19.7973044572       23.0774284207
  H        21.7256427052       20.4226596940       22.2388501870
  H        19.9200413691       21.8919565580       21.8257038774
  H        19.0799351621       20.5012375511       21.9813655914
  H        18.7070844487       19.8759384883       19.0649529262
  O        17.6636026611       19.7644038877       18.9368012405
  O        21.8461245825       18.0906851022       19.7472216202
  O        19.4028965472       16.8215074522       19.6597307269
  O        19.2983712461       23.4631222999       21.1473123747
  O        17.7349754403       17.5128090106       17.3156505780