      12
 i =        1, time =        1.000, E =       -68.8501737385
  H        19.3891100422       18.5455865199       23.2132845387
  H        20.1192639147       19.0228698195       20.4967133995
  H        19.8260890036       19.0130827757       18.9531805689
  H        21.5063844502       19.8531570894       16.7678707719
  H        22.0985728025       18.8556596464       17.8850727312
  H        17.9005180693       21.4711671423       20.5171616965
  H        19.3857462012       20.8682307150       20.4382886188
  H        18.9898094200       19.8031067043       22.2379460211
  O        19.4936982239       18.9358532570       22.3360498223
  O        20.1135808376       19.5809324950       19.6639626650
  O        21.7606234088       18.8953873770       16.9542382473
  O        18.7138824297       21.3233226837       21.0295427714
      12
 i =        2, time =        2.000, E =       -68.8474454689
  H        19.3883451116       18.5580255787       23.1909222198
  H        20.1079181511       19.0194217518       20.5090830135
  H        19.8219504473       19.0354296944       18.9434518753
  H        21.5485942273       19.8438734365       16.7817954286
  H        22.0961991240       18.8386477438       17.8992287326
  H        17.8998261398       21.4757065635       20.5197034073
  H        19.3888424198       20.8701620822       20.4282710703
  H        18.9813586097       19.8140329622       22.2504104583
  O        19.4978806626       18.9350943458       22.3427326939
  O        20.1110525185       19.5808593314       19.6611318941
  O        21.7680185725       18.8959099891       16.9496874578
  O        18.7037478011       21.3219423788       21.0292256688
      12
 i =        3, time =        3.000, E =       -68.8468647865
  H        19.3834359717       18.5644800852       23.1886336749
  H        20.0952707882       19.0197927906       20.5129388535
  H        19.8127413401       19.0473659282       18.9223410460
  H        21.5928474409       19.8307468839       16.8000015642
  H        22.0891570877       18.8266030742       17.9021430425
  H        17.8963484553       21.4794066528       20.5172071412
  H        19.3816726798       20.8756438146       20.4184232452
  H        18.9782000336       19.8148160659       22.2657907718
  O        19.5020053116       18.9354679185       22.3478109991
  O        20.1091555773       19.5809981981       19.6595248309
  O        21.7754015769       18.8963286740       16.9455761867
  O        18.6942760988       21.3202858503       21.0293125118
      12
 i =        4, time =        4.000, E =       -68.8501088668
  H        19.3739060939       18.5622869339       23.2109718281
  H        20.0811869808       19.0242481128       20.5064613939
  H        19.8001470041       19.0518288918       18.8948510217
  H        21.6364394559       19.8250011099       16.8196995360
  H        22.0775769152       18.8187325448       17.8928532469
  H        17.8887032990       21.4827142494       20.5091017989
  H        19.3636765373       20.8849414649       20.4100122142
  H        18.9812668329       19.8045199316       22.2831871495
  O        19.5060476068       18.9372024331       22.3510179513
  O        20.1077826009       19.5811539501       19.6589427516
  O        21.7828770141       18.8959947673       16.9421933550
  O        18.6856346616       21.3183045626       21.0297612190
      12
 i =        5, time =        5.000, E =       -68.8522247741
  H        19.3616501014       18.5560426548       23.2460841504
  H        20.0656271793       19.0309920107       20.4911227888
  H        19.7875976908       19.0544611096       18.8700461330
  H        21.6779151278       19.8344823703       16.8386523358
  H        22.0632593730       18.8134319930       17.8756319452
  H        17.8785059234       21.4855731525       20.4970821846
  H        19.3368607026       20.8969916601       20.4027404893
  H        18.9890596441       19.7861512038       22.3016115091
  O        19.5099844569       18.9398105688       22.3531509615
  O        20.1067154256       19.5810864295       19.6587024297
  O        21.7904142450       18.8945246706       16.9394396026
  O        18.6776322175       21.3161032799       21.0304896429
      12
 i =        6, time =        6.000, E =       -68.8503688959
  H        19.3496367235       18.5523738658       23.2772535570
  H        20.0485119538       19.0365256535       20.4713843843
  H        19.7781181037       19.0598317593       18.8555946942
  H        21.7176181425       19.8572231068       16.8559879258
  H        22.0490803382       18.8085194468       17.8591195453
  H        17.8690326912       21.4876260787       20.4843287309
  H        19.3054425687       20.9096163109       20.3947873893
  H        18.9977856253       19.7663293576       22.3200908924
  O        19.5138659182       18.9424447870       22.3553387314
  O        20.1057657890       19.5807270734       19.6580072545
  O        21.7978472989       18.8921884857       16.9368333059
  O        18.6698144526       21.3138928902       21.0314200444
      12
 i =        7, time =        7.000, E =       -68.8476931915
  H        19.3403198499       18.5554446653       23.2930147381
  H        20.0296175462       19.0366641431       20.4533681456
  H        19.7731745123       19.0698769753       18.8549156799
  H        21.7565118481       19.8831123973       16.8717150288
  H        22.0377337429       18.8018534094       17.8528281701
  H        17.8630260338       21.4886461657       20.4740753674
  H        19.2748182253       20.9200672946       20.3834241172
  H        19.0025042814       19.7534289318       22.3377035345
  O        19.5178484501       18.9443016388       22.3583866764
  O        20.1048499738       19.5802170538       19.6562233498
  O        21.8050132291       18.8897658423       16.9337701611
  O        18.6616666391       21.3119063261       21.0325298137
      12
 i =        8, time =        8.000, E =       -68.8484890394
  H        19.3350734210       18.5660427987       23.2893655911
  H        20.0087058135       19.0285739832       20.4419495369
  H        19.7723009645       19.0836999323       18.8663455668
  H        21.7950374102       19.9013188148       16.8859008905
  H        22.0301144468       18.7921474129       17.8610063954
  H        17.8611940826       21.4888506095       20.4684645006
  H        19.2495586731       20.9261203159       20.3666650482
  H        18.9999226169       19.7532137932       22.3535641359
  O        19.5220530782       18.9449585968       22.3626258575
  O        20.1040009959       19.5797966273       19.6531243259
  O        21.8118961199       18.8880294049       16.9299702179
  O        18.6528344265       21.3102948674       21.0338184962
      12
 i =        9, time =        9.000, E =       -68.8506847819
  H        19.3340045316       18.5818536437       23.2694430479
  H        19.9859473634       19.0128675305       20.4377566332
  H        19.7730293261       19.0977240759       18.8831768203
  H        21.8329831088       19.9052695122       16.8983816034
  H        22.0248421075       18.7793911817       17.8791761221
  H        17.8618406304       21.4889695425       20.4680170751
  H        19.2314066481       20.9272060127       20.3452555225
  H        18.9911216066       19.7647519911       22.3666888949
  O        19.5264056638       18.9446151341       22.3679355821
  O        20.1033459073       19.5796637622       19.6490829883
  O        21.8186621264       18.8874069295       16.9257267311
  O        18.6432834174       21.3090466526       21.0352124407
      12
 i =       10, time =       10.000, E =       -68.8496372773
  H        19.3356662598       18.5977413398       23.2434138097
  H        19.9622354184       18.9936115925       20.4371338348
  H        19.7714577421       19.1066381747       18.8953709070
  H        21.8698601114       19.8939589409       16.9088072767
  H        22.0195617896       18.7644853632       17.8977123750
  H        17.8614501191       21.4900949743       20.4717119491
  H        19.2190414137       20.9245188666       20.3230428903
  H        18.9809706905       19.7814200559       22.3759328810
  O        19.5306948067       18.9440115825       22.3737540814
  O        20.1030527536       19.5799128270       19.6449664612
  O        21.8255383185       18.8879192865       16.9216829419
  O        18.6332898906       21.3079923237       21.0365320452
      12
 i =       11, time =       11.000, E =       -68.8468345732
  H        19.3371118533       18.6067903809       23.2266067280
  H        19.9389834466       18.9760781753       20.4350457027
  H        19.7643138736       19.1063266944       18.8946754703
  H        21.9053956386       19.8718876901       16.9167640510
  H        22.0124209915       18.7485193678       17.9078161149
  H        17.8560723525       21.4933459247       20.4777114846
  H        19.2096087937       20.9200421265       20.3051722838
  H        18.9749574565       19.7955868588       22.3802754895
  O        19.5347666114       18.9440722269       22.3791769062
  O        20.1032181728       19.5804898887       19.6416267526
  O        21.8326777322       18.8892250755       16.9184463476
  O        18.6232724686       21.3068994308       21.0375574463
      12
 i =       12, time =       12.000, E =       -68.8471013910
  H        19.3355481865       18.6038181464       23.2312149134
  H        19.9176063905       18.9644245004       20.4278157042
  H        19.7516838717       19.0975046003       18.8807240100
  H        21.9399081442       19.8482690295       16.9219258406
  H        22.0026292867       18.7322404774       17.9048210761
  H        17.8431887394       21.4994147531       20.4845955117
  H        19.2003817359       20.9155294693       20.2958368366
  H        18.9767356008       19.8020428975       22.3792591305
  O        19.5385690317       18.9454689798       22.3834501237
  O        20.1037316056       19.5811064535       19.6393360679
  O        21.8400993821       18.8906997694       16.9163626313
  O        18.6135890054       21.3055842848       21.0380950155
      12
 i =       13, time =       13.000, E =       -68.8497595837
  H        19.3310242148       18.5898232945       23.2553126168
  H        19.8990861459       18.9605678106       20.4142424052
  H        19.7371533889       19.0855870148       18.8608624608
  H        21.9744575535       19.8339344618       16.9242043440
  H        21.9904053552       18.7157951089       17.8890750098
  H        17.8231415400       21.5081967577       20.4923803562
  H        19.1896295275       20.9120294722       20.2969946512
  H        18.9872525535       19.7991228753       22.3732341545
  O        19.5420326439       18.9482689837       22.3866600614
  O        20.1042947735       19.5813125406       19.6377210426
  O        21.8476853485       18.8916441548       16.9154431201
  O        18.6043856684       21.3039822498       21.0380016468
      12
 i =       14, time =       14.000, E =       -68.8510057751
  H        19.3262682453       18.5712736636       23.2849057104
  H        19.8837391478       18.9639631308       20.3957186668
  H        19.7251806398       19.0769076002       18.8441242768
  H        22.0101776969       19.8349743046       16.9238339067
  H        21.9767439746       18.6986331804       17.8658993245
  H        17.7990399220       21.5187712897       20.5024493915
  H        19.1769359750       20.9097495341       20.3079797275
  H        19.0046454377       19.7889066131       22.3632660848
  O        19.5450854049       18.9519587982       22.3896259777
  O        20.1046018148       19.5807422706       19.6361341144
  O        21.8552499252       18.8916950775       16.9153547524
  O        18.5955607009       21.3021603879       21.0372203546
      12
 i =       15, time =       15.000, E =       -68.8497079752
  H        19.3240532947       18.5553085247       23.3056583139
  H        19.8711243774       18.9718600856       20.3759567154
  H        19.7188965287       19.0757855906       18.8365515519
  H        22.0470590585       19.8479594588       16.9214303061
  H        21.9630466008       18.6796191075       17.8444893040
  H        17.7751890713       21.5297718096       20.5164769798
  H        19.1633284497       20.9079776105       20.3255640808
  H        19.0245298138       19.7770405992       22.3507523957
  O        19.5478001659       18.9557559226       22.3931870264
  O        20.1044824618       19.5792821026       19.6339682789
  O        21.8626491295       18.8911305486       16.9154811156
  O        18.5868316096       21.3002867676       21.0358450256
      12
 i =       16, time =       16.000, E =       -68.8482932726
  H        19.3257178726       18.5467468116       23.3093429861
  H        19.8601675288       18.9801459588       20.3601214588
  H        19.7193291866       19.0836347630       18.8397035634
  H        22.0836969054       19.8628642476       16.9180540380
  H        21.9505069905       18.6576889029       17.8341524913
  H        17.7552021748       21.5398986705       20.5352765255
  H        19.1511190728       20.9051300733       20.3445211344
  H        19.0412311067       19.7711920900       22.3369393137
  O        19.5504109591       18.9588882499       22.3978138210
  O        20.1039403047       19.5770786807       19.6308086990
  O        21.8698517889       18.8906496737       16.9151533189
  O        18.5778477761       21.2985765232       21.0341535747
      12
 i =       17, time =       17.000, E =       -68.8493821321
  H        19.3309972557       18.5473042021       23.2947332117
  H        19.8497254548       18.9850852010       20.3528747220
  H        19.7252202317       19.0988760161       18.8504561340
  H        22.1181957172       19.8699302268       16.9150819126
  H        21.9395377876       18.6332012543       17.8381960266
  H        17.7407041021       21.5483417279       20.5582013877
  H        19.1429726236       20.8993094465       20.3591668285
  H        19.0505589732       19.7769901342       22.3227149441
  O        19.5531535700       18.9609013953       22.4035447032
  O        20.1031258977       19.5744393060       19.6265736117
  O        21.8769276926       18.8908532436       16.9140469615
  O        18.5683279440       21.2972163917       21.0325443238
      12
 i =       18, time =       18.000, E =       -68.8506261763
  H        19.3380235809       18.5552622243       23.2675970572
  H        19.8394705566       18.9853822896       20.3558120834
  H        19.7330504078       19.1171042452       18.8612777297
  H        22.1492285160       19.8638998446       16.9138713891
  H        21.9298882794       18.6087492522       17.8512820848
  H        17.7307643406       21.5550269513       20.5831300858
  H        19.1400819798       20.8895251104       20.3657955386
  H        19.0525114282       19.7937073348       22.3089428485
  O        19.5561028693       18.9619508178       22.4099493553
  O        20.1022783688       19.5716986963       19.6216630398
  O        21.8839775417       18.8919208537       16.9123791323
  O        18.5582167667       21.2962670816       21.0313797822
      12
 i =       19, time =       19.000, E =       -68.8486251794
  H        19.3432417577       18.5652611877       23.2406697016
  H        19.8302953642       18.9827878379       20.3663629192
  H        19.7379570899       19.1323500911       18.8623680819
  H        22.1766724982       19.8450926630       16.9154628085
  H        21.9212756272       18.5881130994       17.8637887451
  H        17.7221798954       21.5606090521       20.6069366505
  H        19.1407242817       20.8767321667       20.3643619557
  H        19.0508225776       19.8146805777       22.2968371398
  O        19.5592173690       18.9627916610       22.4161085009
  O        20.1016416267       19.5691066764       19.6168946369
  O        21.8910535739       18.8936050502       16.9106649469
  O        18.5477821431       21.2956036659       21.0308449069
      12
 i =       20, time =       20.000, E =       -68.8462936460
  H        19.3421899387       18.5700410275       23.2298069202
  H        19.8237285121       18.9805441355       20.3793386163
  H        19.7364502963       19.1404476341       18.8474035529
  H        22.2019050910       19.8190675302       16.9204615492
  H        21.9137167319       18.5744410452       17.8676982173
  H        17.7109594819       21.5660665513       20.6264819299
  H        19.1408283626       20.8635231345       20.3577514258
  H        19.0499686908       19.8319633570       22.2877927194
  O        19.5624845489       18.9643795417       22.4208813473
  O        20.1013296122       19.5667142114       19.6130395555
  O        21.8981113392       18.8953642541       16.9093586727
  O        18.5375027073       21.2949721223       21.0309270210
      12
 i =       21, time =       21.000, E =       -68.8472067653
  H        19.3323792718       18.5660490479       23.2426269504
  H        19.8209878165       18.9813025561       20.3895500547
  H        19.7291747239       19.1421544345       18.8192294570
  H        22.2277220453       19.7949639115       16.9290757844
  H        21.9074304153       18.5690906896       17.8595307761
  H        17.6947901839       21.5719258881       20.6398992770
  H        19.1360004399       20.8527892498       20.3495645764
  H        19.0528479151       19.8401450923       22.2829554291
  O        19.5658817139       18.9672760527       22.4236676198
  O        20.1012119457       19.5643076128       19.6102885985
  O        21.9049935133       18.8965352737       16.9086653142
  O        18.5278106923       21.2941377681       21.0314778893
      12
 i =       22, time =       22.000, E =       -68.8485982611
  H        19.3157546937       18.5574615264       23.2706897881
  H        19.8224292602       18.9860173939       20.3936118572
  H        19.7201095748       19.1418615369       18.7880099419
  H        22.2571775256       19.7812725766       16.9412022359
  H        21.9026022557       18.5711975053       17.8411108624
  H        17.6748188702       21.5776535039       20.6473158060
  H        19.1231904572       20.8466060692       20.3424367586
  H        19.0600831529       19.8376539176       22.2829313515
  O        19.5692563321       18.9713075963       22.4249332666
  O        20.1010010330       19.5615529826       19.6082458742
  O        21.9115277022       18.8966237335       16.9084838127
  O        18.5188810246       21.2930067555       21.0322834877
      12
 i =       23, time =       23.000, E =       -68.8480294764
  H        19.2968486462       18.5520089489       23.2980656244
  H        19.8274609824       18.9937905759       20.3906335129
  H        19.7134559288       19.1438669882       18.7643388395
  H        22.2913167019       19.7801225072       16.9563951312
  H        21.8991815159       18.5777218344       17.8194398165
  H        17.6550248324       21.5818420589       20.6503986244
  H        19.1013653287       20.8457893360       20.3374160029
  H        19.0701444638       19.8267404117       22.2876380314
  O        19.5724385802       18.9758262620       22.4256864103
  O        20.1004563623       19.5582377404       19.6063147540
  O        21.9176766828       18.8956649746       16.9084107398
  O        18.5106049284       21.2916422086       21.0331477411
      12
 i =       24, time =       24.000, E =       -68.8467884311
  H        19.2797238931       18.5554059269       23.3124194981
  H        19.8347006534       19.0021650920       20.3822411355
  H        19.7117011926       19.1503340849       18.7548241589
  H        22.3279798921       19.7858033384       16.9737495044
  H        21.8967894068       18.5843023899       17.8048144900
  H        17.6398058383       21.5830335553       20.6512363224
  H        19.0715797699       20.8498189998       20.3338778484
  H        19.0797553752       19.8129478061       22.2962301045
  O        19.5754080385       18.9800972752       22.4267781992
  O        20.0994987491       19.5543830016       19.6039778545
  O        21.9236154282       18.8942735720       16.9078634375
  O        18.5027000110       21.2902015210       21.0339781625
      12
 i =       25, time =       25.000, E =       -68.8475406404
  H        19.2667431586       18.5696050823       23.3084419855
  H        19.8423104776       19.0077465365       20.3720384736
  H        19.7151103475       19.1609842132       18.7607849046
  H        22.3632762856       19.7895175853       16.9920007922
  H        21.8948523215       18.5874086390       17.8053940205
  H        17.6317263861       21.5805079731       20.6514349863
  H        19.0367377973       20.8569175941       20.3296506982
  H        19.0848866155       19.8035249418       22.3072195919
  O        19.5782969708       18.9835149828       22.4286675525
  O        20.0982219671       19.5502291330       19.6009171896
  O        21.9296285261       18.8932174746       16.9064120085
  O        18.4948491804       21.2888669042       21.0348287697
      12
 i =       26, time =       26.000, E =       -68.8498971822
  H        19.2582837065       18.5928672670       23.2877484968
  H        19.8485887159       19.0073461043       20.3641731547
  H        19.7215990118       19.1732128791       18.7778915659
  H        22.3938223735       19.7846203046       17.0098460698
  H        21.8929566239       18.5866159322       17.8208409639
  H        17.6303730184       21.5746793655       20.6517121108
  H        19.0009369653       20.8644489131       20.3216005732
  H        19.0828181183       19.8040068505       22.3189251179
  O        19.5812830267       18.9858210667       22.4313850708
  O        20.0968624529       19.5461606892       19.5971300967
  O        21.9359454012       18.8929457882       16.9041562793
  O        18.4868180849       21.2877866843       21.0358805468
      12
 i =       27, time =       27.000, E =       -68.8499812487
  H        19.2523324924       18.6199703933       23.2588288620
  H        19.8526970675       18.9994864351       20.3611373974
  H        19.7268190640       19.1823648104       18.7964574509
  H        22.4180816983       19.7688040420       17.0262348128
  H        21.8910559571       18.5843652369       17.8424838574
  H        17.6323285005       21.5670745141       20.6518686946
  H        18.9681156256       20.8699035750       20.3071397533
  H        19.0742792390       19.8146765802       22.3299696659
  O        19.5844786278       18.9873174821       22.4344948351
  O        20.0957456127       19.5425931365       19.5930502298
  O        21.9426446207       18.8934608674       16.9016935363
  O        18.4785480048       21.2870132628       21.0373409689
      12
 i =       28, time =       28.000, E =       -68.8474164870
  H        19.2443348834       18.6431417980       23.2358677288
  H        19.8549966171       18.9852621692       20.3622632705
  H        19.7255379697       19.1831695570       18.8047827510
  H        22.4368008378       19.7442158027       17.0405545383
  H        21.8892892194       18.5836029831       17.8597377564
  H        17.6323612830       21.5598623999       20.6511297958
  H        18.9404631823       20.8721504271       20.2862544622
  H        19.0633298729       19.8306671252       22.3393567837
  O        19.5879385784       18.9888011147       22.4371584014
  O        20.0951743382       19.5398211638       19.5894324431
  O        21.9496419986       18.8944531436       16.8997103181
  O        18.4701898788       21.2864606367       21.0392885135
      12
 i =       29, time =       29.000, E =       -68.8468093909
  H        19.2293955474       18.6555336760       23.2318910202
  H        19.8566369722       18.9676860125       20.3643568443
  H        19.7151779460       19.1730974667       18.7970914626
  H        22.4529178256       19.7166647065       17.0527330194
  H        21.8876796244       18.5860041159       17.8653432253
  H        17.6258918495       21.5549407740       20.6489590364
  H        18.9179454529       20.8718988166       20.2622915449
  H        19.0549759864       19.8455275748       22.3462939559
  O        19.5916813268       18.9911150549       22.4385789929
  O        20.0952293974       19.5378429672       19.5868154810
  O        21.9567175251       18.8954591897       16.8986579482
  O        18.4619987803       21.2859437332       21.0415661668
      12
 i =       30, time =       30.000, E =       -68.8480927472
  H        19.2071951973       18.6561703347       23.2476641178
  H        19.8588206202       18.9501545075       20.3637317511
  H        19.6983952459       19.1546925673       18.7787687697
  H        22.4707149301       19.6936335768       17.0631286612
  H        21.8859483667       18.5914765079       17.8571234200
  H        17.6116371155       21.5530148046       20.6460101850
  H        18.8991898658       20.8709415943       20.2405311949
  H        19.0529419977       19.8544198284       22.3501748454
  O        19.5955188461       18.9946277591       22.4387150421
  O        20.0956538611       19.5363094312       19.5850684713
  O        21.9635871519       18.8960176605       16.8986512230
  O        18.4541206674       21.2852930616       21.0438085037
      12
 i =       31, time =       31.000, E =       -68.8476370184
  H        19.1831612106       18.6499588156       23.2711574302
  H        19.8623397669       18.9352386639       20.3579011371
  H        19.6809359471       19.1335006264       18.7612264379
  H        22.4936985994       19.6806427378       17.0720076488
  H        21.8834369020       18.5982696715       17.8381447512
  H        17.5922519147       21.5534014423       20.6443133191
  H        18.8826995010       20.8710289803       20.2258792717
  H        19.0587395752       19.8554142182       22.3506490045
  O        19.5990330316       18.9991445369       22.4383262300
  O        20.0960213876       19.5347320032       19.5836094550
  O        21.9700486725       18.8958933712       16.8994870858
  O        18.4464762214       21.2844423627       21.0455788482
      12
 i =       32, time =       32.000, E =       -68.8457801214
  H        19.1639527571       18.6429625851       23.2884129294
  H        19.8674756445       18.9241376548       20.3463289203
  H        19.6679431540       19.1146341303       18.7540315079
  H        22.5221523541       19.6777779430       17.0789111950
  H        21.8791202822       18.6033674682       17.8161996607
  H        17.5724332519       21.5546809607       20.6463867151
  H        18.8675912927       20.8731651222       20.2212303797
  H        19.0715636774       19.8497432536       22.3475719601
  O        19.6018593671       19.0041895971       22.4383012018
  O        20.0959802918       19.5327337592       19.5818521377
  O        21.9761438839       18.8952711204       16.9007105519
  O        18.4388332790       21.2834315372       21.0465303672
      12
 i =       33, time =       33.000, E =       -68.8452328299
  H        19.1539408131       18.6393402154       23.2906547294
  H        19.8740759824       18.9165773909       20.3305394403
  H        19.6622187942       19.1011581288       18.7615844054
  H        22.5528193545       19.6799232361       17.0827678570
  H        21.8718295705       18.6034673847       17.8014077941
  H        17.5563494111       21.5555450024       20.6540812634
  H        18.8538835644       20.8773394206       20.2267689416
  H        19.0885497634       19.8416330675       22.3408388941
  O        19.6038895563       19.0092179777       22.4392201668
  O        20.0953608365       19.5301567338       19.5794052518
  O        21.9821609076       18.8946815099       16.9017541214
  O        18.4309513053       21.2823659314       21.0465241213
      12
 i =       34, time =       34.000, E =       -68.8473792626
  H        19.1544064402       18.6407417621       23.2754124645
  H        19.8817154732       18.9110465829       20.3138051820
  H        19.6638710321       19.0937118983       18.7827518194
  H        22.5810857750       19.6804225736       17.0827481483
  H        21.8608852472       18.5968453482       17.8006160915
  H        17.5459714206       21.5553280296       20.6678957327
  H        18.8425693396       20.8824699223       20.2398719432
  H        19.1055885479       19.8372545731       22.3302441973
  O        19.6052788110       19.0137283183       22.4412839533
  O        20.0941870423       19.5270710953       19.5761143057
  O        21.9884594290       18.8946534749       16.9022360655
  O        18.4226742085       21.2813780775       21.0456817081
      12
 i =       35, time =       35.000, E =       -68.8497320240
  H        19.1634248604       18.6462465775       23.2462573916
  H        19.8899581430       18.9054784063       20.3002835667
  H        19.6701860649       19.0902780513       18.8109999692
  H        22.6034387305       19.6744931903       17.0789120859
  H        21.8469120623       18.5849799575       17.8121622354
  H        17.5404543921       21.5541858819       20.6868218196
  H        18.8354475174       20.8865807848       20.2556286145
  H        19.1191038968       19.8419872310       22.3155972867
  O        19.6063476055       19.0174416193       22.4443106784
  O        20.0926652798       19.5237490551       19.5721099088
  O        21.9952557628       18.8953978233       16.9022513477
  O        18.4139749465       21.2805951333       21.0443668238
      12
 i =       36, time =       36.000, E =       -68.8487664628
  H        19.1755531174       18.6521268408       23.2128653510
  H        19.8986863168       18.8983846115       20.2935059963