      45
 i =        1, time =        1.000, E =      -258.3120060683
  H        17.3048778586       17.0861970784       17.5267239814
  H        20.9912648482       19.7757105237       19.2164647323
  H        22.4927778706       19.2785645245       18.9342292046
  H        18.0326638142       16.3265606191       21.5296633999
  H        17.7750976072       17.6367057599       20.6118041210
  H        17.6090798482       22.5805778669       20.9477614136
  H        18.8124257237       23.4149409137       21.3897123502
  H        16.9303626069       19.1693140807       18.8750954024
  H        16.7972397779       19.7638781604       20.3861922065
  H        22.3306401208       21.3984216278       20.8564946799
  H        21.1841193582       22.4466085699       20.3981753424
  H        18.6716119831       20.3071711264       23.4668266363
  H        18.7424212617       21.8612178275       23.7411136114
  H        20.6754374323       17.1945468631       16.3075738348
  H        20.5833591301       18.4974020323       17.2177660052
  H        21.8410392554       18.7617338691       22.9057857265
  H        22.0661969079       17.5533438621       21.9034248644
  H        19.2492448608       18.2795940898       22.3808910136
  H        19.5609617399       19.6352844950       21.8614869401
  H        17.0003540675       21.4739619884       22.3486842958
  H        15.5499696139       21.6858195257       22.0069604259
  H        23.2044939839       19.2438549546       21.1819956426
  H        24.4723481180       20.0087660616       20.3211953991
  H        19.1759129874       21.3374656442       20.3607451043
  H        18.7495201560       19.8874915024       19.8399140330
  H        20.3574507437       16.7866872975       20.3802877414
  H        21.2984722754       17.5064115536       19.5576106789
  H        20.8766806608       23.6394181920       23.6574310121
  H        20.9407513731       22.7554466401       22.3929831782
  H        18.3217963180       17.8576641814       16.7816797059
  O        17.3643124838       17.9781473274       17.0796741774
  O        21.5151343374       19.1662809012       18.6639879010
  O        18.4913654459       17.1018332000       21.0789088027
  O        18.4837896985       22.9218082588       20.5843850145
  O        17.1348164579       19.0434217595       19.7936792018
  O        21.8244840616       22.2335930586       21.1376133340
  O        18.0558574609       21.1306975700       23.6369694109
  O        20.0534201155       17.9407994376       16.5818210496
  O        22.5057457575       18.4193883985       22.2749009668
  O        19.6823792059       19.1106496955       22.6687130908
  O        16.3946442933       21.3757685674       21.6121398333
  O        23.4856946051       19.8332011800       20.3574796943
  O        19.5006645443       20.3541087416       20.2927459115
  O        21.2798657955       16.7775356093       20.2069661236
  O        20.2783812325       23.0453651151       23.1099874539
      45
 i =        2, time =        2.000, E =      -258.3170234296
  H        17.2954506488       17.0912534330       17.5067210336
  H        21.0001845777       19.7832129567       19.1891674114
  H        22.4852092322       19.3062166925       18.9372113674
  H        18.0145812472       16.3366302546       21.5141528959
  H        17.7939203533       17.6238194720       20.6208366690
  H        17.6236854778       22.5804952490       20.9386626837
  H        18.8360905620       23.3950853578       21.4047133408
  H        16.9324454799       19.2062034355       18.8664890704
  H        16.7939057433       19.7671074546       20.3841461249
  H        22.2993925940       21.4029020626       20.8303198850
  H        21.1827707783       22.4234864173       20.4018754754
  H        18.6820503449       20.3153807709       23.4597799263
  H        18.7700121030       21.8476511391       23.7618629846
  H        20.6660448909       17.2118579236       16.3391486287
  H        20.5919380732       18.4869738729       17.2126887231
  H        21.8239998584       18.7783461570       22.9255194901
  H        22.0846305428       17.5582118582       21.9065996053
  H        19.2442715403       18.2749163603       22.3738331370
  H        19.5831319763       19.6324330528       21.8586366973
  H        17.0083604934       21.4807324811       22.3548763515
  H        15.5540249159       21.6695727459       22.0241052288
  H        23.1980325209       19.2610248308       21.1966604814
  H        24.4791867875       20.0146940614       20.3532649346
  H        19.1906180214       21.3269560292       20.3635851331
  H        18.7655752427       19.8905057637       19.8025180065
  H        20.3238353237       16.7963851470       20.4291626326
  H        21.3061062181       17.5002078226       19.5431860034
  H        20.8725990678       23.5994543180       23.6599653413
  H        20.9248565346       22.7737308976       22.3856387445
  H        18.3045727315       17.8579644745       16.7740638366
  O        17.3623699204       17.9689840890       17.0785820663
  O        21.5125900471       19.1593414145       18.6709106271
  O        18.4888846422       17.1011442862       21.0734036039
  O        18.4856214992       22.9202046923       20.5801884605
  O        17.1367377480       19.0511492243       19.7933815082
  O        21.8232708385       22.2365220835       21.1445494815
  O        18.0495678526       21.1316912190       23.6324532870
  O        20.0543782438       17.9322402410       16.5809643798
  O        22.5039716803       18.4219597516       22.2778398696
  O        19.6789800986       19.1084057523       22.6676789878
  O        16.3922891302       21.3776622350       21.6143787664
  O        23.4863985191       19.8394061452       20.3568480872
  O        19.5048174926       20.3517284787       20.2948632835
  O        21.2899045533       16.7812654133       20.2022917202
  O        20.2790307125       23.0483080088       23.1093040980
      45
 i =        3, time =        3.000, E =      -258.3155447885
  H        17.2814524882       17.0962802520       17.4885247960
  H        21.0010740098       19.7995934807       19.1715217457
  H        22.4672313331       19.3346977379       18.9414945421
  H        18.0011302699       16.3546911503       21.4933033134
  H        17.8085222206       17.6158691667       20.6250796597
  H        17.6359093001       22.5794081286       20.9262530159
  H        18.8590387039       23.3697353714       21.4107203519
  H        16.9306133098       19.2437769730       18.8461970889
  H        16.7872728479       19.7723228977       20.3796159046
  H        22.2671657776       21.4114160983       20.8076940135
  H        21.1873321427       22.3983055039       20.4107705443
  H        18.6817799067       20.3316826849       23.4537234756
  H        18.7883524185       21.8264725539       23.7802831376
  H        20.6566905723       17.2287203403       16.3707274816
  H        20.6004468706       18.4757532122       17.2081757356
  H        21.8098916384       18.7920301759       22.9363235670
  H        22.1072810209       17.5767606619       21.9098714419
  H        19.2381148395       18.2673632825       22.3665839943
  H        19.6077099877       19.6380735083       21.8420808411
  H        17.0304774465       21.4819814284       22.3776239508
  H        15.5562673363       21.6526908845       22.0388720821
  H        23.1946421965       19.2824129098       21.2044669000
  H        24.4722462572       20.0167950137       20.3880250606
  H        19.2071435875       21.3094316978       20.3661141587
  H        18.7831214777       19.8943225094       19.7683376471
  H        20.2920074927       16.8042445007       20.4783254896
  H        21.3169357451       17.5011691899       19.5242656915
  H        20.8657687404       23.5600691094       23.6640884365
  H        20.9072878719       22.7873335064       22.3796492466
  H        18.2898432330       17.8643894287       16.7648143750
  O        17.3605061630       17.9595840217       17.0775997474
  O        21.5109624201       19.1517373489       18.6772289470
  O        18.4864442818       17.0995892729       21.0686075436
  O        18.4877487801       22.9189859051       20.5767318027
  O        17.1388587731       19.0587882319       19.7940071815
  O        21.8220169025       22.2393016287       21.1507147159
  O        18.0446202772       21.1326914646       23.6277954691
  O        20.0554383731       17.9237680939       16.5800873444
  O        22.5017817607       18.4238682921       22.2811945713
  O        19.6756198244       19.1058150187       22.6676380069
  O        16.3891884818       21.3797072226       21.6156529007
  O        23.4876704365       19.8456481337       20.3564964309
  O        19.5089753926       20.3499279972       20.2966625710
  O        21.2996368330       16.7844667740       20.1979519026
  O        20.2797655495       23.0514882957       23.1086715179
      45
 i =        4, time =        4.000, E =      -258.3096676211
  H        17.2627602349       17.0929400957       17.4759768634
  H        20.9934935348       19.8236742424       19.1623920466
  H        22.4432552344       19.3629067371       18.9472468865
  H        17.9898485801       16.3747433100       21.4707170222
  H        17.8130751098       17.6186058672       20.6197163536
  H        17.6413560119       22.5759038250       20.9128090483
  H        18.8796240218       23.3387769005       21.4064868790
  H        16.9276449467       19.2789850300       18.8262126369
  H        16.7774705083       19.7802311131       20.3739512755
  H        22.2378357334       21.4205642814       20.7900567922
  H        21.1934822439       22.3745197467       20.4220075442
  H        18.6710712446       20.3522773928       23.4476847765
  H        18.7951494487       21.7988762533       23.7957868355
  H        20.6577898887       17.2310121140       16.3972773985
  H        20.6074862650       18.4648273404       17.2043113670
  H        21.8024856619       18.7995956628       22.9340674792
  H        22.1301167711       17.6022098904       21.9108818770
  H        19.2321905239       18.2602766505       22.3598404736
  H        19.6346729726       19.6475603363       21.8176158007
  H        17.0583235080       21.4764735703       22.4067104777
  H        15.5550205493       21.6358698110       22.0522096023
  H        23.1937070129       19.3075436344       21.2047153331
  H        24.4547878178       20.0161867256       20.4242942048
  H        19.2230611140       21.2905355773       20.3684953707
  H        18.8031464362       19.8998062786       19.7395265369
  H        20.2799370591       16.8114140233       20.5208732424
  H        21.3288261778       17.5064136512       19.5042576761
  H        20.8639314651       23.5281578582       23.6771341483
  H        20.8903732434       22.7953547401       22.3729340798
  H        18.2812857291       17.8757321824       16.7530762071
  O        17.3584970476       17.9505409630       17.0765207024
  O        21.5100337945       19.1436204787       18.6829836544
  O        18.4845604678       17.0971683635       21.0645876190
  O        18.4905458089       22.9182651540       20.5739726677
  O        17.1409738876       19.0664583028       19.7947180643
  O        21.8207450546       22.2419386303       21.1562169557
  O        18.0411646386       21.1338492284       23.6231117083
  O        20.0560329192       17.9161872930       16.5795074045
  O        22.4991961553       18.4257462993       22.2854260588
  O        19.6721930460       19.1029684521       22.6682004919
  O        16.3860018443       21.3819269559       21.6165446608
  O        23.4893306768       19.8518822749       20.3565090286
  O        19.5132204212       20.3483122200       20.2980117046
  O        21.3080049341       16.7872215603       20.1941870411
  O        20.2799490192       23.0545069733       23.1077796944
      45
 i =        5, time =        5.000, E =      -258.3063785640
  H        17.2401665633       17.0774560743       17.4703281465
  H        20.9808425152       19.8488511275       19.1570025153
  H        22.4196142114       19.3903151507       18.9549808990
  H        17.9765481424       16.3889962376       21.4509155483
  H        17.8079681664       17.6330432087       20.6040997910
  H        17.6380191774       22.5694796293       20.8997795342
  H        18.8975761987       23.3039429118       21.3942032921
  H        16.9259249379       19.3085952329       18.8163777751
  H        16.7649402814       19.7907624108       20.3680424042
  H        22.2152454795       21.4266451068       20.7783533049
  H        21.1958670976       22.3556493547       20.4314482494
  H        18.6526000828       20.3706875133       23.4400190060
  H        18.7913593044       21.7689997882       23.8085725189
  H        20.6739279979       17.2118383732       16.4167718814
  H        20.6120847698       18.4553098914       17.2012941214
  H        21.8018130329       18.8000421144       22.9185965379
  H        22.1480965579       17.6245779651       21.9058333221
  H        19.2277159584       18.2565354436       22.3540699134
  H        19.6635662327       19.6545384438       21.7936354099
  H        17.0837435297       21.4634009035       22.4328315631
  H        15.5500003706       21.6194120264       22.0646627891
  H        23.1940596236       19.3350197840       21.1981663232
  H        24.4346062686       20.0148084407       20.4612059860
  H        19.2356285052       21.2775678314       20.3710860573
  H        18.8254911572       19.9069581569       19.7173879023
  H        20.2951146893       16.8186636762       20.5521884750
  H        21.3400053962       17.5119907787       19.4877207513
  H        20.8712814156       23.5064213169       23.7026222352
  H        20.8761819874       22.7975589478       22.3642809905
  H        18.2800205869       17.8903512990       16.7391006662
  O        17.3562265247       17.9421931134       17.0752406516
  O        21.5092229410       19.1354529473       18.6883864609
  O        18.4834669140       17.0943093559       21.0610930529
  O        18.4941424113       22.9179726619       20.5717023073
  O        17.1428821862       19.0743074667       19.7948524736
  O        21.8195498564       22.2444511585       21.1612614582
  O        18.0389845991       21.1353014574       23.6185132719
  O        20.0559369442       17.9098487399       16.5793394093
  O        22.4965306628       18.4282798606       22.2908457866
  O        19.6686112281       19.1000876677       22.6688246062
  O        16.3833013232       21.3843454942       21.6176032247
  O        23.4909629805       19.8580927739       20.3568671887
  O        19.5177240023       20.3464470090       20.2988116779
  O        21.3145983643       16.7897279076       20.1910259923
  O        20.2791854431       23.0571846142       23.1064973173
      45
 i =        6, time =        6.000, E =      -258.3060738404
  H        17.2158372315       17.0535640978       17.4690995159
  H        20.9672365044       19.8673339326       19.1504590887
  H        22.4021177114       19.4167694430       18.9651610739
  H        17.9577286370       16.3920216794       21.4369572642
  H        17.7996804566       17.6548237001       20.5821423716
  H        17.6276799490       22.5611198856       20.8873036476
  H        18.9141638132       23.2682990408       21.3792951754
  H        16.9267498225       19.3302476663       18.8213229058
  H        16.7506356808       19.8028026975       20.3621105585
  H        22.2021125395       21.4271806470       20.7733311301
  H        21.1905570766       22.3442907554       20.4361261692
  H        18.6307214228       20.3791288968       23.4287371268
  H        18.7811216713       21.7430636649       23.8197259070
  H        20.6983660368       17.1778861629       16.4310920667
  H        20.6138858797       18.4480298369       17.1993485941
  H        21.8041289907       18.7947414737       22.8936536688
  H        22.1573652373       17.6354290676       21.8911932081
  H        19.2251418941       18.2573917066       22.3492774550
  H        19.6933074382       19.6538997673       21.7771235663
  H        17.1013884840       21.4429225361       22.4503312438
  H        15.5425353885       21.6031934118       22.0760051820
  H        23.1938403018       19.3624681377       21.1873377677
  H        24.4212488001       20.0148913476       20.4985047342
  H        19.2427855680       21.2761164946       20.3742127499
  H        18.8488265877       19.9149484434       19.7019816530
  H        20.3376346806       16.8263921409       20.5702166143
  H        21.3492470422       17.5147981550       19.4783894697
  H        20.8849718355       23.4914249522       23.7365002900
  H        20.8659702889       22.7944727062       22.3541584206
  H        18.2838847780       17.9062185292       16.7245195168
  O        17.3537015970       17.9344327361       17.0738111348
  O        21.5079323371       19.1277260368       18.6936555994
  O        18.4829736616       17.0916468206       21.0576841278
  O        18.4983288010       22.9178527695       20.5695894491
  O        17.1444261165       19.0824754422       19.7941233969
  O        21.8185106498       22.2468348760       21.1659735790
  O        18.0375483643       21.1371315207       23.6140774659
  O        20.0556019972       17.9042733419       16.5794429895
  O        22.4942683279       18.4318948068       22.2974917112
  O        19.6648564989       19.0974101532       22.6690809354
  O        16.3813839638       21.3869630536       21.6191975698
  O        23.4920910029       19.8643294049       20.3574167722
  O        19.5226857482       20.3440712721       20.2990316587
  O        21.3194603269       16.7921657206       20.1883899126
  O        20.2775785055       23.0596817807       23.1050581117
      45
 i =        7, time =        7.000, E =      -258.3060883154
  H        17.1928798654       17.0294328398       17.4678187087
  H        20.9553257223       19.8736196485       19.1398167797
  H        22.3933076777       19.4417496434       18.9775678022
  H        17.9335826463       16.3846370650       21.4283564945
  H        17.7959131831       17.6775624662       20.5593775992
  H        17.6149364345       22.5529131838       20.8747312266
  H        18.9316729502       23.2352215111       21.3689353391
  H        16.9302138351       19.3430117250       18.8401271449
  H        16.7359247138       19.8145165833       20.3559204306
  H        22.1992464784       21.4221054178       20.7758203498
  H        21.1772949501       22.3414268858       20.4364389795
  H        18.6093959034       20.3716703133       23.4123090354
  H        18.7706024392       21.7275811887       23.8309029624
  H        20.7193064774       17.1422802347       16.4433025611
  H        20.6130290167       18.4433404837       17.1985957149
  H        21.8021047426       18.7873082355       22.8662477613
  H        22.1577982254       17.6341852112       21.8666931130
  H        19.2239582150       18.2621006446       22.3449684438
  H        19.7225487249       19.6430052258       21.7720595997
  H        17.1085768702       21.4161024733       22.4567483229
  H        15.5349299404       21.5868968188       22.0854224194
  H        23.1905710060       19.3867221063       21.1763909110
  H        24.4205562968       20.0179770809       20.5360842694
  H        19.2441300205       21.2864353840       20.3778349525
  H        18.8709124194       19.9223726266       19.6921057238
  H        20.4007299497       16.8347658656       20.5759615988
  H        21.3559206920       17.5136262492       19.4779739864
  H        20.8980405064       23.4770471232       23.7699265838
  H        20.8599867622       22.7871772310       22.3447166242
  H        18.2886913062       17.9210728355       16.7117884404
  O        17.3509980711       17.9268844120       17.0723650446
  O        21.5058547482       19.1207785578       18.6989512542
  O        18.4825850323       17.0895611310       21.0540447695
  O        18.5026525732       22.9175532808       20.5672449861
  O        17.1455133075       19.0910634022       19.7926177572
  O        21.8175982529       22.2490312877       21.1702566042
  O        18.0362174762       21.1392771594       23.6098159503
  O        20.0557691786       17.8986108311       16.5796052586
  O        22.4928909436       18.4363644792       22.3049539480
  O        19.6609760357       19.0951383598       22.6687552116
  O        16.3803105705       21.3897517482       21.6215342997
  O        23.4925118642       19.8707400738       20.3579046327
  O        19.5282520417       20.3413021999       20.2987339783
  O        21.3230431480       16.7946154953       20.1861351733
  O        20.2755622465       23.0622981594       23.1038898710
      45
 i =        8, time =        8.000, E =      -258.3042927278
  H        17.1742714402       17.0123722506       17.4626099230
  H        20.9457581645       19.8656998630       19.1243724270
  H        22.3915148756       19.4637654742       18.9909986299
  H        17.9081565115       16.3731187859       21.4216953338
  H        17.8018563728       17.6959846472       20.5402956009
  H        17.6048653188       22.5470823966       20.8615211288
  H        18.9517255466       23.2067864837       21.3686202753
  H        16.9351618944       19.3476939064       18.8663186313
  H        16.7222534891       19.8240441629       20.3491989847
  H        22.2055292654       21.4137073791       20.7866326233
  H        21.1595372126       22.3464161248       20.4359471639
  H        18.5897480496       20.3481252930       23.3907765465
  H        18.7649986343       21.7264187341       23.8433169363
  H        20.7277933374       17.1155589821       16.4554935292
  H        20.6098796615       18.4411428179       17.1989755070
  H        21.7871125933       18.7821304468       22.8439627848
  H        22.1528339095       17.6283632617       21.8361545863
  H        19.2228809861       18.2682816553       22.3403218416
  H        19.7501539743       19.6219042799       21.7791254085
  H        17.1045781745       21.3846675697       22.4518364508
  H        15.5293912049       21.5703059010       22.0920590516
  H        23.1817593337       19.4045936424       21.1698995678
  H        24.4304195703       20.0241668651       20.5729553881
  H        19.2409044833       21.3032761205       20.3814353305
  H        18.8891660608       19.9276945057       19.6857374200
  H        20.4684781196       16.8440202595       20.5750726552
  H        21.3600119941       17.5094604346       19.4856987855
  H        20.9044241579       23.4586060362       23.7947934904
  H        20.8577471489       22.7769076959       22.3389340364
  H        18.2903296629       17.9327301650       16.7032313534
  O        17.3481945327       17.9192136790       17.0710088565
  O        21.5030675834       19.1147801320       18.7043766117
  O        18.4817241449       17.0880235271       21.0501073096
  O        18.5066754974       22.9167847385       20.5643852006
  O        17.1461429863       19.1000916534       19.7907609058
  O        21.8166702003       22.2509346886       21.1738104237
  O        18.0345965419       21.1414716738       23.6056676450
  O        20.0569913185       17.8922065664       16.5796844623
  O        22.4927397895       18.4408928376       22.3124726498
  O        19.6570543829       19.0934075626       22.6678580203
  O        16.3800087280       21.3926524092       21.6246870364
  O        23.4925233715       19.8775489247       20.3581213359
  O        19.5344779688       20.3386051796       20.2980602995
  O        21.3263486497       16.7970194567       20.1839813479
  O        20.2735689946       23.0652367712       23.1033235690
      45
 i =        9, time =        9.000, E =      -258.3032880573
  H        17.1619725808       17.0058264737       17.4515680857
  H        20.9372370866       19.8451671825       19.1053654690
  H        22.3925036614       19.4806366361       19.0037039477
  H        17.8865024878       16.3647547292       21.4131320900
  H        17.8193495417       17.7070923728       20.5273843995
  H        17.6011583482       22.5452010734       20.8477325340
  H        18.9733173513       23.1827535140       21.3786644471
  H        16.9392675968       19.3467791622       18.8884881820
  H        16.7107413054       19.8301943708       20.3419740109
  H        22.2186133253       21.4054016960       20.8060958466
  H        21.1423508271       22.3574831769       20.4390228229
  H        18.5699760795       20.3148729147       23.3661871461
  H        18.7652142976       21.7382733053       23.8564854286
  H        20.7200106272       17.1028062713       16.4684933012
  H        20.6048039323       18.4409956121       17.2002200977
  H        21.7550747124       18.7812209303       22.8299824149
  H        22.1468250699       17.6273393391       21.8049046589
  H        19.2203839250       18.2729320833       22.3345693128
  H        19.7755752336       19.5933392679       21.7954831445
  H        17.0902197380       21.3506834480       22.4370087529
  H        15.5271044094       21.5534714610       22.0955439453
  H        23.1659902187       19.4142504549       21.1704774904
  H        24.4428158010       20.0324112561       20.6070312475
  H        19.2350654922       21.3192717036       20.3842487821
  H        18.9015352052       19.9298339151       19.6809751389
  H        20.5153082732       16.8548992013       20.5788923560
  H        21.3620327638       17.5053540141       19.4983697628
  H        20.9013108418       23.4342951966       23.8068142441
  H        20.8585299742       22.7646784908       22.3394858570
  H        18.2863276744       17.9394367347       16.7002968120
  O        17.3453273171       17.9112961941       17.0697766075
  O        21.4999315869       19.1097257562       18.7099545760
  O        18.4799640401       17.0867953084       21.0459595245
  O        18.5102181124       22.9154382812       20.5610223174
  O        17.1464216789       19.1094659522       19.7892511486
  O        21.8155554503       22.2524375349       21.1763139033
  O        18.0327567802       21.1433569053       23.6015533104
  O        20.0595057528       17.8847754395       16.5796313139
  O        22.4938012635       18.4447238998       22.3194279637
  O        19.6531675222       19.0922232877       22.6666175333
  O        16.3803476724       21.3955765318       21.6285990675
  O        23.4927273926       19.8849598972       20.3580664579
  O        19.5413297835       20.3365317018       20.2971662154
  O        21.3309647638       16.7991606729       20.1814356674
  O        20.2718476403       23.0685355233       23.1034704456
      45
 i =       10, time =       10.000, E =      -258.3093219309
  H        17.1564901607       17.0085395917       17.4350447958
  H        20.9266146237       19.8169589259       19.0856160343
  H        22.3919688162       19.4904210618       19.0141458486
  H        17.8720397346       16.3643663940       21.4002133879
  H        17.8472363753       17.7103825463       20.5209727663
  H        17.6052741317       22.5478562658       20.8340324943
  H        18.9927567074       23.1612194788       21.3942764161
  H        16.9398608768       19.3432783321       18.8942897393
  H        16.7018431492       19.8329033385       20.3346960367
  H        22.2358237222       21.4002755864       20.8336126717
  H        21.1300856654       22.3723312596       20.4485546182
  H        18.5476956035       20.2814560100       23.3417725203
  H        18.7677111641       21.7572344344       23.8680664192
  H        20.6970848070       17.1035669421       16.4821664503
  H        20.5980846066       18.4422134182       17.2018730724
  H        21.7108013391       18.7824756464       22.8207879297
  H        22.1430991531       17.6374253889       21.7771550567
  H        19.2154182391       18.2738431516       22.3274754861
  H        19.7991718402       19.5625590469       21.8145792120
  H        17.0679713851       21.3161778229       22.4153356279
  H        15.5277792270       21.5367138193       22.0962485768
  H        23.1437806531       19.4161955216       21.1770020690
  H        24.4494187417       20.0413997439       20.6360081875
  H        19.2284448062       21.3282198423       20.3855756134
  H        18.9073524977       19.9286704919       19.6771003836
  H        20.5209091064       16.8683629917       20.5979047760
  H        21.3626875855       17.5057603400       19.5112027757
  H        20.8895404896       23.4050090711       23.8063580548
  H        20.8617600508       22.7510816052       22.3479121749
  H        18.2765754035       17.9401382084       16.7032050659
  O        17.3423690751       17.9032605278       17.0686278035
  O        21.4969346897       19.1054030864       18.7155871875
  O        18.4771663680       17.0856270170       21.0417444226
  O        18.5134182264       22.9135729100       20.5574556666
  O        17.1465225568       19.1190189593       19.7888029356
  O        21.8141424504       22.2534860680       21.1776011974
  O        18.0311015556       21.1446731557       23.5974441654
  O        20.0632512739       17.8764028320       16.5794703069
  O        22.4955505272       18.4475747912       22.3256865315
  O        19.6493236120       19.0913812071       22.6654635718
  O        16.3811587927       21.3984202659       21.6330548684
  O        23.4936242672       19.8930206673       20.3580021075
  O        19.5486859557       20.3354745292       20.2961402008
  O        21.3381484238       16.8007181164       20.1781467553
  O        20.2704091706       23.0720908590       23.1042167136
      45