      39
 i =        1, time =        1.000, E =      -223.8584840984
  H        17.1896973868       17.4912134654       18.6479143180
  H        19.0697890690       20.8226288071       18.8915015485
  H        19.8322624872       22.0680390883       18.4462528272
  H        22.8514786251       17.4974383972       19.6399049732
  H        21.4570675260       17.3246575808       20.3125383065
  H        20.3280167949       22.3847001388       23.6030733750
  H        19.2035158882       22.4975964162       22.5485709704
  H        19.3406649552       16.6012401815       19.7817502324
  H        19.3215093164       16.9704095287       21.3008881951
  H        19.5647115890       23.4013435995       20.4851830704
  H        18.1532316300       22.9896040207       20.2198818379
  H        20.3106932191       18.9115959594       23.9477606052
  H        19.1878076266       20.0117172701       23.8641204529
  H        19.5883383965       19.9245958835       17.0491588314
  H        18.7334107926       19.5132250395       15.9042024222
  H        22.0691418066       19.6206103079       20.6490913791
  H        20.6391694777       20.1791559652       20.9325117803
  H        22.2129274912       17.6905058230       22.7564507840
  H        22.4014913976       19.2346105203       22.8085257310
  H        18.5085562070       18.3575327608       23.0479779019
  H        17.1452110677       17.7820292975       22.7747292326
  H        21.4032089725       21.8684998427       20.1419692380
  H        22.0735497192       23.2115291799       19.4150176467
  H        18.3903327396       19.3171493893       21.3846087889
  H        19.0116494426       18.6493524453       20.1811163717
  H        18.4860140703       17.8867161989       17.8453592019
  O        18.1514972936       17.1794284099       18.4885181195
  O        19.3289351140       21.3369348013       18.1389946742
  O        22.3340123614       17.8267768641       20.4005732334
  O        19.5507789793       21.9397041626       23.2903364572
  O        19.9596618851       16.7651608135       20.5554601136
  O        18.6784446843       23.3493485093       20.9328038306
  O        19.3477635578       19.0674289173       24.0924309644
  O        19.1374128883       19.0900656782       16.6776965869
  O        21.6065925228       20.4252071963       21.0563661732
  O        22.1947380163       18.4140785719       23.3565292186
  O        18.0024261952       17.8422956940       22.3321305619
  O        21.2486042538       22.7080703483       19.5866980112
  O        18.9494505247       19.5673791623       20.5999935078
      39
 i =        2, time =        2.000, E =      -223.8568496871
  H        17.1886817231       17.4833090946       18.6470613552
  H        19.0680052717       20.8162342315       18.8860361217
  H        19.8463525557       22.0730868902       18.4497042588
  H        22.8454244868       17.4910640643       19.6325046721
  H        21.4617232875       17.3197980745       20.3153968524
  H        20.3100025174       22.3634642670       23.6045897053
  H        19.1971816705       22.4910138991       22.5277897715
  H        19.3532828771       16.6090965466       19.7482682137
  H        19.3338795635       16.9943295000       21.2990208107
  H        19.5360132805       23.3981496534       20.4824182312
  H        18.1499130456       22.9736465198       20.2110648308
  H        20.3303482723       18.9115051624       23.9440399317
  H        19.2150997007       19.9982272923       23.8850738658
  H        19.5955241221       19.9585913587       17.0727947413
  H        18.7272292027       19.5141895231       15.8992950213
  H        22.0373532184       19.6217078850       20.6226450859
  H        20.6251463475       20.1607661867       20.9329811574
  H        22.2361268855       17.6612750204       22.7173559074
  H        22.4259796903       19.2096583426       22.8372937980
  H        18.5268172391       18.3578524321       23.0817171029
  H        17.1428073407       17.7699457725       22.7670032404
  H        21.4065922969       21.8877558205       20.1568022979
  H        22.0811437582       23.1874186320       19.4215906000
  H        18.3881888224       19.3224765012       21.3747063780
  H        19.0312676362       18.6510191924       20.1977898656
  H        18.4710692578       17.9017478606       17.8203762256
  O        18.1507420338       17.1778043568       18.4935907846
  O        19.3250651940       21.3403771667       18.1415058396
  O        22.3394347163       17.8309537140       20.4064434386
  O        19.5524007700       21.9413508905       23.2904288135
  O        19.9634000089       16.7672410366       20.5449450176
  O        18.6831748971       23.3548627651       20.9420993692
  O        19.3469287370       19.0651805347       24.0894238013
  O        19.1407704476       19.0839451578       16.6798831483
  O        21.6043038214       20.4321722787       21.0519635843
  O        22.1913854962       18.4157705617       23.3551840484
  O        17.9987226608       17.8356414126       22.3293580155
  O        21.2440008813       22.7031508608       19.5938078405
  O        18.9471066385       19.5684168289       20.5924448022
      39
 i =        3, time =        3.000, E =      -223.8525924452
  H        17.2039744571       17.4690693723       18.6449365350
  H        19.0617997432       20.8006106380       18.8989349695
  H        19.8740015188       22.0891094656       18.4611876949
  H        22.8397809076       17.4867561722       19.6284810753
  H        21.4669714019       17.3190292374       20.3223282898
  H        20.3167890019       22.3569619948       23.6149928574
  H        19.1931444416       22.4814133994       22.5102634603
  H        19.3689674364       16.6198352909       19.7217766497
  H        19.3491848630       17.0151923875       21.2923214599
  H        19.5189134984       23.3965003780       20.4774658998
  H        18.1437570213       22.9570582164       20.2051279346
  H        20.3471437983       18.9107433772       23.9398672286
  H        19.2435977302       19.9988183927       23.9041200603
  H        19.5928053351       19.9766111429       17.0941118996
  H        18.7192676072       19.5109278202       15.8948604260
  H        22.0040856561       19.6269478624       20.5990342940
  H        20.6173850836       20.1441248577       20.9378310130
  H        22.2602743496       17.6376623696       22.6780532760
  H        22.4499701310       19.1854156071       22.8615681339
  H        18.5470431043       18.3527583878       23.1126282470
  H        17.1327040315       17.7539172430       22.7598972550
  H        21.4168898885       21.9050110741       20.1728937538
  H        22.0866729257       23.1590631162       19.4308193164
  H        18.3852953760       19.3279738393       21.3645231784
  H        19.0524337551       18.6587862650       20.2148721608
  H        18.4539159185       17.9078053655       17.8018020052
  O        18.1491971078       17.1771973139       18.4982820421
  O        19.3207352862       21.3435711820       18.1424210094
  O        22.3449448611       17.8349027678       20.4119581501
  O        19.5521559165       21.9421339749       23.2897436485
  O        19.9666349980       16.7691034577       20.5343087831
  O        18.6875826825       23.3601809533       20.9513439919
  O        19.3465041720       19.0624232236       24.0864328131
  O        19.1448836521       19.0789814892       16.6822454042
  O        21.6016348771       20.4387240159       21.0471820707
  O        22.1878892076       18.4172051301       23.3540762800
  O        17.9953399120       17.8293685114       22.3268072129
  O        21.2390417423       22.6986480954       19.6008224734
  O        18.9448672963       19.5693259881       20.5844495667
      39
 i =        4, time =        4.000, E =      -223.8518036401
  H        17.2279605573       17.4504794472       18.6433691431
  H        19.0544478686       20.7819623203       18.9221632878
  H        19.9071616227       22.1039410234       18.4764479907
  H        22.8340997776       17.4854200679       19.6293618843
  H        21.4726055623       17.3225579226       20.3335459132
  H        20.3445432793       22.3637264721       23.6321173265
  H        19.1933909205       22.4680671676       22.4985930548
  H        19.3871528979       16.6338606819       19.7042917433
  H        19.3661398776       17.0322771271       21.2800749317
  H        19.5193770103       23.3971315465       20.4678654426
  H        18.1397708257       22.9439346370       20.2100809897
  H        20.3559108454       18.9088056372       23.9358973554
  H        19.2715081421       20.0162337432       23.9204015269
  H        19.5781846148       19.9753365750       17.1108026030
  H        18.7120091495       19.5018196691       15.8950219671
  H        21.9722170614       19.6357713968       20.5783219018
  H        20.6178131045       20.1321048988       20.9477201672
  H        22.2838780477       17.6321198981       22.6496178028
  H        22.4775403701       19.1735978736       22.8741722838
  H        18.5650007722       18.3402837445       23.1358557927
  H        17.1175302779       17.7345161845       22.7526256701
  H        21.4327234772       21.9162049749       20.1922736471
  H        22.0908076333       23.1285000753       19.4415058267
  H        18.3806451608       19.3332239335       21.3555001010
  H        19.0753896550       18.6674955918       20.2297315198
  H        18.4346984377       17.9024489656       17.7923294580
  O        18.1473562663       17.1776459124       18.5022876658
  O        19.3162525121       21.3468704679       18.1425128849
  O        22.3505548954       17.8385270534       20.4170144541
  O        19.5501594826       21.9421832596       23.2882498543
  O        19.9694701137       16.7707710181       20.5235084638
  O        18.6909294966       23.3650156667       20.9601992615
  O        19.3469185528       19.0589850875       24.0834582002
  O        19.1497134528       19.0755149182       16.6846666304
  O        21.5982949553       20.4447568296       21.0419715717
  O        22.1840608867       18.4168625153       23.3529705080
  O        17.9924225508       17.8236356947       22.3248168521
  O        21.2337222193       22.6946849758       19.6076811157
  O        18.9427815091       19.5704114375       20.5761181710
      39
 i =        5, time =        5.000, E =      -223.8540425922
  H        17.2474636103       17.4310498141       18.6449505224
  H        19.0497992221       20.7681919326       18.9452946965
  H        19.9381372930       22.1071051184       18.4914950643
  H        22.8288368708       17.4870464713       19.6348948650
  H        21.4780436447       17.3300108198       20.3488693761
  H        20.3764935184       22.3753838424       23.6482031745
  H        19.1985809144       22.4520929511       22.4927319284
  H        19.4058744102       16.6509051776       19.6951203973
  H        19.3824908840       17.0455014136       21.2634049019
  H        19.5345603921       23.4000649237       20.4554165114
  H        18.1404635198       22.9364190182       20.2294879708
  H        20.3545006233       18.9050262557       23.9324162843
  H        19.2981660724       20.0438504224       23.9346047794
  H        19.5521795330       19.9554884354       17.1222251883
  H        18.7067818536       19.4865480676       15.9014882604
  H        21.9448326784       19.6466514729       20.5597708084
  H        20.6254428827       20.1266358255       20.9629095821
  H        22.3055012171       17.6489410401       22.6369844882
  H        22.5104709624       19.1779175603       22.8736729501
  H        18.5776651078       18.3202243318       23.1487028024
  H        17.1020832387       17.7126607058       22.7435271376
  H        21.4517517066       21.9198119854       20.2151728173
  H        22.0950901247       23.0983747094       19.4520259627
  H        18.3737972950       19.3379496314       21.3481355563
  H        19.1005334349       18.6720206003       20.2401018660
  H        18.4146376095       17.8858489558       17.7922079653
  O        18.1459906280       17.1789351480       18.5054130797
  O        19.3118490284       21.3504194852       18.1427005473
  O        22.3562456041       17.8418253239       20.4216256128
  O        19.5474317779       21.9419481103       23.2864344575
  O        19.9721496196       16.7722731610       20.5125303661
  O        18.6932029262       23.3692504825       20.9683575817
  O        19.3483371310       19.0552990115       24.0804430991
  O        19.1551267625       19.0735482489       16.6870579653
  O        21.5941653173       20.4502891713       21.0363479020
  O        22.1798480404       18.4142281537       23.3516560429
  O        17.9898796547       17.8184522739       22.3236367805
  O        21.2280339499       22.6911898232       19.6144606526
  O        18.9408480086       19.5719669009       20.5676023799
      39
 i =        6, time =        6.000, E =      -223.8576984512
  H        17.2491983687       17.4141100148       18.6521489177
  H        19.0503225683       20.7648386603       18.9606689941
  H        19.9619468542       22.0930190784       18.5036858453
  H        22.8251903576       17.4907482894       19.6431324327
  H        21.4825972927       17.3405997613       20.3677807287
  H        20.3973339543       22.3843418928       23.6561701867
  H        19.2080714535       22.4359293545       22.4902541724
  H        19.4220611072       16.6701576689       19.6909906713
  H        19.3954833685       17.0553525989       21.2448308309
  H        19.5555992579       23.4048550284       20.4451484374
  H        18.1455758933       22.9343716591       20.2623544009
  H        20.3437806205       18.8987172173       23.9294072397
  H        19.3230811958       20.0707371683       23.9476856482
  H        19.5174740695       19.9215105783       17.1294231069
  H        18.7034122795       19.4662700741       15.9131020570
  H        21.9245911464       19.6577080621       20.5421940473
  H        20.6366476853       20.1284042882       20.9833273841
  H        22.3242196720       17.6858941526       22.6400817354
  H        22.5458058479       19.1911627226       22.8659769390
  H        18.5828563559       18.2933509326       23.1499415924
  H        17.0909016176       17.6893660425       22.7312324170
  H        21.4707733337       21.9171469331       20.2396712206
  H        22.1007506176       23.0710659311       19.4607789988
  H        18.3651997149       19.3420463548       21.3416265656
  H        19.1279346870       18.6701307720       20.2451827027
  H        18.3956265185       17.8607140846       17.7991741440
  O        18.1458262091       17.1807026952       18.5076394834
  O        19.3076604691       21.3542191073       18.1436514690
  O        22.3619635520       17.8448857353       20.4259223293
  O        19.5449941627       21.9417478395       23.2848966663
  O        19.9750239337       16.7736297038       20.5014135201
  O        18.6949639826       23.3729357312       20.9755976775
  O        19.3507170807       19.0520748520       24.0773483892
  O        19.1609442553       19.0727486985       16.6893831433
  O        21.5893199557       20.4554269691       21.0303831217
  O        22.1754630854       18.4098780445       23.3497735412
  O        17.9875562266       17.8137347608       22.3234040373
  O        21.2220473376       22.6879365296       19.6213658497
  O        18.9390224977       19.5741064207       20.5590403144
      39
 i =        7, time =        7.000, E =      -223.8597794653
  H        17.2300075824       17.4002011382       18.6656242944
  H        19.0567068677       20.7740253540       18.9646604739
  H        19.9765499101       22.0608153377       18.5117065002
  H        22.8245897406       17.4950866198       19.6511866305
  H        21.4857160545       17.3533220687       20.3894844412
  H        20.3990917167       22.3866407891       23.6524008303
  H        19.2203427645       22.4224487244       22.4873852844
  H        19.4321919457       16.6905828060       19.6869514614
  H        19.4026332076       17.0625583917       21.2272780418
  H        19.5734748529       23.4108809243       20.4419708389
  H        18.1519946797       22.9352251663       20.3034847682
  H        20.3274705449       18.8891848966       23.9265821798
  H        19.3455546124       20.0876628799       23.9600513267
  H        19.4789137189       19.8826668536       17.1360032963
  H        18.7002842522       19.4433025903       15.9262413968
  H        21.9130660020       19.6675842972       20.5246088883
  H        20.6459586496       20.1367594290       21.0086675501
  H        22.3401487045       17.7345887910       22.6535407139
  H        22.5779114673       19.2025015650       22.8595146265
  H        18.5791279486       18.2609337341       23.1395273613
  H        17.0864765486       17.6654498768       22.7154525823
  H        21.4863198895       21.9110855863       20.2626656167
  H        22.1075667525       23.0479448322       19.4666290133
  H        18.3560614006       19.3455305395       21.3341929527
  H        19.1568333152       18.6639314415       20.2459660364
  H        18.3799462842       17.8324556317       17.8081213624
  O        18.1469165735       17.1825846903       18.5092507219
  O        19.3037320912       21.3582090913       18.1456946621
  O        22.3676544810       17.8478612768       20.4301118256
  O        19.5434671086       21.9416504576       23.2841114168
  O        19.9784683638       16.7748410402       20.4902745004
  O        18.6969797523       23.3762735692       20.9819510145
  O        19.3538431615       19.0499189843       24.0741982910
  O        19.1669382813       19.0723968731       16.6915892713
  O        21.5840262459       20.4602984728       21.0241740771
  O        22.1712290283       18.4050039256       23.3471332709
  O        17.9853569424       17.8093619134       22.3241156207
  O        21.2159622043       22.6846732674       19.6286268944
  O        18.9372589135       19.5766849065       20.5505104615
      39
 i =        8, time =        8.000, E =      -223.8586223039
  H        17.2001255711       17.3869802764       18.6834222319
  H        19.0679593666       20.7944919367       18.9576051861
  H        19.9831072566       22.0138545985       18.5155587728
  H        22.8279236326       17.4986544018       19.6565617352
  H        21.4871638244       17.3671557886       20.4129524090
  H        20.3811084256       22.3817982982       23.6368115096
  H        19.2337384430       22.4137978589       22.4807628799
  H        19.4335865630       16.7113510508       19.6785072115
  H        19.4026769762       17.0675504175       21.2127092185
  H        19.5823258788       23.4175153667       20.4485699399
  H        18.1541841074       22.9342583065       20.3446162437
  H        20.3115579121       18.8756754816       23.9234055322
  H        19.3648695307       20.0895082087       23.9716115325
  H        19.4427647411       19.8532126025       17.1487230843
  H        18.6949951668       19.4203568791       15.9362361021
  H        21.9102415766       19.6761232496       20.5068861922
  H        20.6478408051       20.1500607776       21.0384960952
  H        22.3552037037       17.7803719140       22.6655751592
  H        22.6018635123       19.2045279331       22.8607521789
  H        18.5660726838       18.2246675317       23.1188836730
  H        17.0885195951       17.6413009343       22.6971772094
  H        21.4954301350       21.9045050399       20.2812359666
  H        22.1136512124       23.0292447169       19.4690971402
  H        18.3478456538       19.3484632597       21.3238834774
  H        19.1857109636       18.6583948299       20.2444736165
  H        18.3698107711       17.8085301937       17.8115953571
  O        18.1484686523       17.1842687956       18.5108475797
  O        19.3000012152       21.3622914239       18.1488178042
  O        22.3733007076       17.8509184860       20.4343980774
  O        19.5430180829       21.9415586580       23.2843108371
  O        19.9827382949       16.7758931266       20.4792679390
  O        18.6999797630       23.3796034999       20.9877705898
  O        19.3573588263       19.0491858299       24.0710734961
  O        19.1728397262       19.0714284840       16.6935003361
  O        21.5786721407       20.4649782142       21.0178115923
  O        22.1673304824       18.4009820293       23.3440672474
  O        17.9832817966       17.8051918377       22.3255975914
  O        21.2100859685       22.6812310653       19.6363887294
  O        18.9355439677       19.5793979363       20.5420305050
      39
 i =        9, time =        9.000, E =      -223.8607128193
  H        17.1742607163       17.3719228098       18.7022448770
  H        19.0813893669       20.8215013867       18.9440557977
  H        19.9867568344       21.9594814744       18.5167874089
  H        22.8348484713       17.5006804811       19.6584890949
  H        21.4871011520       17.3812213348       20.4369592303
  H        20.3499469813       22.3727730751       23.6127366072
  H        19.2471740711       22.4103625707       22.4693069838
  H        19.4259208490       16.7321150042       19.6641922910
  H        19.3962028974       17.0700436501       21.2011422607
  H        19.5802072938       23.4242132475       20.4648900618
  H        18.1466372328       22.9265379506       20.3778682896
  H        20.3023659092       18.8574872388       23.9192695502
  H        19.3805474932       20.0755465692       23.9820667076
  H        19.4135100455       19.8463461610       17.1743993096
  H        18.6857354337       19.3995252976       15.9397862401
  H        21.9144449519       19.6843466726       20.4899736002
  H        20.6394365666       20.1665572369       21.0722033055
  H        22.3728923570       17.8066488248       22.6611057575
  H        22.6150689879       19.1951692944       22.8729167515
  H        18.5451579097       18.1870031545       23.0918340865
  H        17.0941590975       17.6167557433       22.6783919676
  H        21.4961986723       21.8993842417       20.2934985423
  H        22.1163569135       23.0144992962       19.4682512788
  H        18.3416407739       19.3508666470       21.3094394162
  H        19.2128956802       18.6584643093       20.2426482765
  H        18.3663945577       17.7953427339       17.8029853738
  O        18.1494714680       17.1855146329       18.5130601601
  O        19.2962645426       21.3663400843       18.1526359630
  O        22.3789483148       17.8541812634       20.4388997533
  O        19.5433164763       21.9412793390       23.2853717465
  O        19.9878184691       16.7767767520       20.4685057942
  O        18.7044453190       23.3832884736       20.9935476572
  O        19.3608763883       19.0499525979       24.0680799198
  O        19.1784523145       19.0688906879       16.6948722103
  O        21.5736048927       20.4694322554       21.0113768171
  O        22.1637026874       18.3989853170       23.3413157043
  O        17.9813709158       17.8010513957       22.3274593043
  O        21.2047479830       22.6775489078       19.6446684304
  O        18.9339000883       19.5819599867       20.5335797312
      39
 i =       10, time =       10.000, E =      -223.8650099263
  H        17.1629982428       17.3539983248       18.7191410760
  H        19.0927362021       20.8471475790       18.9328316959
  H        19.9966016433       21.9077843574       18.5183494348
  H        22.8436975798       17.5012457317       19.6583189120
  H        21.4860522529       17.3948847584       20.4601522936
  H        20.3197062789       22.3663328195       23.5867849901
  H        19.2602972639       22.4106102762       22.4548329029
  H        19.4116614617       16.7528973732       19.6463376641
  H        19.3854645144       17.0690937786       21.1908371516
  H        19.5691860619       23.4305795187       20.4881275745
  H        18.1284024808       22.9106442413       20.4009472322
  H        20.3032398719       18.8344829380       23.9138976992
  H        19.3925368800       20.0497370005       23.9910332420
  H        19.3902599387       19.8627945640       17.2126560118
  H        18.6726553165       19.3815765412       15.9370636394
  H        21.9228466133       19.6937203074       20.4755231043
  H        20.6226414453       20.1852133627       21.1086749563
  H        22.3948366700       17.8069256355       22.6343025676
  H        22.6177152444       19.1772651128       22.8960180841
  H        18.5208914421       18.1518030797       23.0659469704
  H        17.0991184485       17.5911573738       22.6613995213
  H        21.4880029999       21.8964899379       20.2988913458
  H        22.1135960655       23.0030931976       19.4644374977
  H        18.3376426307       19.3526131236       21.2908919513
  H        19.2372070878       18.6669140366       20.2416468114
  H        18.3687791413       17.7939405792       17.7815343029
  O        18.1493133339       17.1863336921       18.5161216850
  O        19.2921709106       21.3702503642       18.1564014537
  O        22.3847075529       17.8577007251       20.4436199871
  O        19.5434990979       21.9405075132       23.2867787841
  O        19.9933886612       16.7775111873       20.4580061656
  O        18.7103083039       23.3874735429       20.9995888760
  O        19.3641738945       19.0519663761       24.0653091736
  O        19.1837961401       19.0647068712       16.6957165652
  O        21.5689526574       20.4735519264       21.0049398831
  O        22.1602249167       18.3992518410       23.3392383020
  O        17.9795673987       17.7967052567       22.3290479431
  O        21.2001739919       22.6736421557       19.6534044536
  O        18.9323836367       19.5842294138       20.5251123973
      39
 i =       11, time =       11.000, E =      -223.8632938032
  H        17.1700723074       17.3336279900       18.7323850819
  H        19.0973579779       20.8629751187       18.9341574738
  H        20.0218154244       21.8671604021       18.5228364173
  H        22.8521422970       17.5009618220       19.6586345818
  H        21.4847800662       17.4077856156       20.4811710893
  H        20.3078357474       22.3712012689       23.5666392932
  H        19.2730670524       22.4120199551       22.4408281702
  H        19.3948811139       16.7737507952       19.6292346920
  H        19.3734698111       17.0635874137       21.1794771043
  H        19.5553825302       23.4364208703       20.5128643119
  H        18.1050162113       22.8903476674       20.4182737552
  H        20.3123012482       18.8077478787       23.9076707449
  H        19.4013462019       20.0212737295       23.9979852069
  H        19.3685523854       19.8906817960       17.2547463386
  H        18.6579830542       19.3660227392       15.9316214437
  H        21.9323093173       19.7052031841       20.4651742059
  H        20.6033913046       20.2056764307       21.1460479387
  H        22.4176725534       17.7901873052       22.5957206027
  H        22.6130499105       19.1579585068       22.9269219526
  H        18.5008623425       18.1242892908       23.0524897443
  H        17.0998405166       17.5637389069       22.6479059491
  H        21.4715092772       21.8952840446       20.2982027452
  H        22.1048020407       22.9946252666       19.4580219059
  H        18.3349174793       19.3533072936       21.2697241015
  H        19.2584077288       18.6835088456       20.2416142794
  H        18.3742405266       17.7996762838       17.7533634305
  O        18.1479411848       17.1870140999       18.5197458229
  O        19.2873959588       21.3740419647       18.1592985874
  O        22.3907094708       17.8614657146       20.4484883053
  O        19.5424610381       21.9388769708       23.2878390914
  O        19.9989544642       16.7781591696       20.4477176473
  O        18.7168175307       23.3919749170       21.0059349591
  O        19.3673252475       19.0545632014       24.0628116053
  O        19.1889918700       19.0596726243       16.6963781417
  O        21.5645731540       20.4772486703       20.9985690736
  O        22.1568957331       18.4007794491       23.3373596257
  O        17.9775878773       17.7918504351       22.3295075505
  O        21.1963965931       22.6695813771       19.6624960767
  O        18.9310678833       19.5862604584       20.5165634346
      39
 i =       12, time =       12.000, E =      -223.8594071716
  H        17.1922223053       17.3122141905       18.7418183883
  H        19.0927155402       20.8654084024       18.9524798352
  H        20.0640697319       21.8389710003       18.5295233774
  H        22.8581483247       17.5004132486       19.6618130351
  H        21.4841329256       17.4197998446       20.4987849297
  H        20.3216006697       22.3909040935       23.5555634852
  H        19.2852842166       22.4123271456       22.4305305905
  H        19.3795953946       16.7945247066       19.6166672093
  H        19.3629197720       17.0527788428       21.1654592911
  H        19.5476701847       23.4417033998       20.5320747062
  H        18.0849425163       22.8718001935       20.4364207240
  H        20.3238093483       18.7796577462       23.9014714589
  H        19.4080358694       20.0031844523       24.0022266399
  H        19.3448003535       19.9169592077       17.2906982657
  H        18.6447978002       19.3517831101       15.9282238703
  H        21.9401969601       19.7185737106       20.4598894845
  H        20.5886815805       20.2275876815       21.1819194505
  H        22.4360570578       17.7704404241       22.5609138504
  H        22.6070976948       19.1475786706       22.9600022094