       6
 i =        1, time =        1.000, E =       -34.4165038821
  H        20.1172262841       19.9331102024       17.8592897213
  H        20.4400714668       20.6589337346       22.1381392077
  H        19.9920768463       20.8629764725       20.6813319619
  H        20.1011268025       19.2003020521       19.1957803178
  O        19.5354377161       19.8172168601       18.6222162673
  O        20.3489245209       20.1991803348       21.2887025342
       6
 i =        2, time =        2.000, E =       -34.4141992252
  H        20.1208517073       19.9209355161       17.8679178964
  H        20.4162997362       20.6368528059       22.1236443820
  H        19.9647643508       20.8916849048       20.6507157591
  H        20.0829046434       19.2465496574       19.1733147277
  O        19.5352843442       19.8198147150       18.6200535798
  O        20.3534504014       20.1938501232       21.2944615564
       6
 i =        3, time =        3.000, E =       -34.4073327669
  H        20.1287876320       19.9117663331       17.8666561055
  H        20.3934917354       20.6241095379       22.1251640353
  H        19.9437311116       20.9073854987       20.6314608974
  H        20.0662916048       19.2881452890       19.1584064966
  O        19.5347766681       19.8224506320       18.6179899047
  O        20.3576808839       20.1886754058       21.2984603553
       6
 i =        4, time =        4.000, E =       -34.4073658182
  H        20.1393360483       19.9059050542       17.8563396704
  H        20.3711391310       20.6230110296       22.1466540412
  H        19.9335482875       20.9027241329       20.6307758801
  H        20.0636522408       19.3117623783       19.1653637068
  O        19.5332481626       19.8259153832       18.6150949022
  O        20.3613503029       20.1840068414       21.2999668591
       6
 i =        5, time =        5.000, E =       -34.4137351005
  H        20.1486915866       19.9026403157       17.8419091387
  H        20.3483976729       20.6284110487       22.1783384882
  H        19.9351312585       20.8769694756       20.6497023166
  H        20.0774241746       19.3155619394       19.1969083078
  O        19.5307970610       19.8303349684       18.6109154397
  O        20.3644285091       20.1802594437       21.2995214167
       6
 i =        6, time =        6.000, E =       -34.4160900648
  H        20.1533106020       19.9008099467       17.8292417490
  H        20.3252643006       20.6325666523       22.2056967026
  H        19.9458909278       20.8351839282       20.6837456478
  H        20.0970615261       19.3107937359       19.2404727991
  O        19.5283242985       19.8350432445       18.6059067539
  O        20.3670454012       20.1776479962       21.2983297691
       6
 i =        7, time =        7.000, E =       -34.4111071704
  H        20.1514775953       19.8993814303       17.8224046383
  H        20.3025356367       20.6297193502       22.2183086354
  H        19.9584105973       20.7896596133       20.7213699954
  H        20.1104892282       19.3097577083       19.2804630673
  O        19.5267045156       19.8393121221       18.6008223116
  O        20.3695820799       20.1757993387       21.2977881341
       6
 i =        8, time =        8.000, E =       -34.4063284345
  H        20.1437762560       19.8977254267       17.8224103218
  H        20.2812088880       20.6173632102       22.2124489856
  H        19.9600327054       20.7594997362       20.7441552836
  H        20.1107875816       19.3194505699       19.3065338872
  O        19.5263333105       19.8427359206       18.5962688441
  O        20.3727342681       20.1736986379       21.2992943838
       6
 i =        9, time =        9.000, E =       -34.4113246512
  H        20.1329234319       19.8956329629       17.8271296835
  H        20.2618531760       20.5963774531       22.1912875113
  H        19.9409376708       20.7579214423       20.7386922583
  H        20.0960769750       19.3418790871       19.3142912824
  O        19.5271501946       19.8452070954       18.5926677348
  O        20.3770409189       20.1704843321       21.3034783655
       6
 i =       10, time =       10.000, E =       -34.4166283331
  H        20.1230164470       19.8932110416       17.8321433452
  H        20.2438947335       20.5712324485       22.1650426830
  H        19.9066129324       20.7761760313       20.7124413271
  H        20.0685802867       19.3751009782       19.3047983813
  O        19.5287499760       19.8468485157       18.5902372276
  O        20.3821513634       20.1664421884       21.3091985923
       6
 i =       11, time =       11.000, E =       -34.4133610920
  H        20.1179335343       19.8906928008       17.8328111026
  H        20.2251186000       20.5491181658       22.1490554656
  H        19.8712435985       20.7952918000       20.6835958848
  H        20.0349150510       19.4131778948       19.2854845599
  O        19.5304670729       19.8480256946       18.5888070923
  O        20.3872886074       20.1623101225       21.3143256268
       6
 i =       12, time =       12.000, E =       -34.4075146022
  H        20.1193358232       19.8881828743       17.8271206589
  H        20.2027428066       20.5357454601       22.1552668938
  H        19.8456694075       20.8021525780       20.6656028104
  H        20.0064815244       19.4461167842       19.2711590030
  O        19.5314772862       19.8493669466       18.5875740984
  O        20.3919443754       20.1585336324       21.3172640423
       6
 i =       13, time =       13.000, E =       -34.4078155384
  H        20.1259342293       19.8854781135       17.8171480770
  H        20.1763462287       20.5301651701       22.1812875212
  H        19.8350917204       20.7913775965       20.6646988433
  H        19.9952046660       19.4638853395       19.2783536906
  O        19.5311079507       19.8515265980       18.5853617972
  O        20.3958274583       20.1554933578       21.3177871494
       6
 i =       14, time =       14.000, E =       -34.4129062085
  H        20.1348432919       19.8821332450       17.8075704279
  H        20.1487776962       20.5261197635       22.2127941723
  H        19.8402229618       20.7631252991       20.6816118835
  H        20.0030186461       19.4653255742       19.3094016781
  O        19.5294141057       19.8546157896       18.5817167508
  O        20.3987227149       20.1535654852       21.3167703335
       6
 i =       15, time =       15.000, E =       -34.4142587562
  H        20.1434670151       19.8777103555       17.8028619127
  H        20.1238940173       20.5174784655       22.2353575155
  H        19.8573832117       20.7224443662       20.7118767037
  H        20.0202939703       19.4588851940       19.3487718100
  O        19.5271599191       19.8581377864       18.5773184362
  O        20.4006263247       20.1528208449       21.3154216996
       6
 i =       16, time =       16.000, E =       -34.4096484676
  H        20.1504837829       19.8719833549       17.8054392187
  H        20.1046012495       20.5008006980       22.2406984134
  H        19.8769827179       20.6802725177       20.7443548226
  H        20.0361498731       19.4536119734       19.3788051236
  O        19.5251085607       19.8615427422       18.5731109592
  O        20.4019630382       20.1527964058       21.3149772946
       6
 i =       17, time =       17.000, E =       -34.4061204399
  H        20.1560392676       19.8649939427       17.8151317155
  H        20.0921104899       20.4754323628       22.2274519822
  H        19.8837027556       20.6524571006       20.7618161665
  H        20.0439470870       19.4546842689       19.3890449345
  O        19.5236663028       19.8645148682       18.5697525229
  O        20.4036233050       20.1525446223       21.3166171820
       6
 i =       18, time =       18.000, E =       -34.4111751285
  H        20.1615009621       19.8570184719       17.8295020807
  H        20.0853837821       20.4433056515       22.2011701167
  H        19.8668483706       20.6489514364       20.7524519380
  H        20.0411803845       19.4636765435       19.3764442304
  O        19.5229059825       19.8669430399       18.5675830794
  O        20.4063503298       20.1513174701       21.3207420659
       6
 i =       19, time =       19.000, E =       -34.4155085008
  H        20.1687789216       19.8485204153       17.8447788423
  H        20.0803802159       20.4087825999       22.1744506694
  H        19.8336343732       20.6622507627       20.7239487120
  H        20.0288561904       19.4791692765       19.3444531298
  O        19.5226477661       19.8688943021       18.5666214244
  O        20.4099520995       20.1493030569       21.3260796286
       6
 i =       20, time =       20.000, E =       -34.4123310139
  H        20.1792037464       19.8401264956       17.8573095068
  H        20.0706016968       20.3772238721       22.1635985067
  H        19.8003326967       20.6772834143       20.6938534802
  H        20.0119548638       19.4964821200       19.3035765366
  O        19.5224981444       19.8706358900       18.5664372040
  O        20.4138159912       20.1470994505       21.3304991869
       6
 i =       21, time =       21.000, E =       -34.4077952803
  H        20.1924615841       19.8325906096       17.8650268959
  H        20.0514653144       20.3512625738       22.1773665791
  H        19.7788454031       20.6836017973       20.6753614301
  H        19.9997244849       19.5075731256       19.2712296040
  O        19.5218956979       19.8726411985       18.5660666277
  O        20.4174880545       20.1451881149       21.3326145520
       6
 i =       22, time =       22.000, E =       -34.4085383983
  H        20.2064770704       19.8266637332       17.8680805937
  H        20.0251533659       20.3288350269       22.2077785059
  H        19.7744749260       20.6768404809       20.6747110479
  H        20.0013278396       19.5045629651       19.2639705137
  O        19.5203922801       19.8753736391       18.5644546858
  O        20.4204981315       20.1439674537       21.3325305787
       6
 i =       23, time =       23.000, E =       -34.4127246753
  H        20.2184122020       19.8228881475       17.8683038917
  H        19.9984128230       20.3062497447       22.2380249178
  H        19.7873575346       20.6571394569       20.6925362684
  H        20.0162781210       19.4872867498       19.2825243392
  O        19.5181966350       19.8788229922       18.5614299640
  O        20.4224157055       20.1436584437       21.3312659074
       6
 i =       24, time =       24.000, E =       -34.4135693157
  H        20.2259084381       19.8214801131       17.8679997159
  H        19.9774487151       20.2811213302       22.2544896429
  H        19.8126512095       20.6287559709       20.7240689129
  H        20.0342721019       19.4637528122       19.3118616774
  O        19.5161127722       19.8824767331       18.5577798482
  O        20.4231570620       20.1441446415       21.3299817644
       6
 i =       25, time =       25.000, E =       -34.4095734698
  H        20.2278875634       19.8223698639       17.8687430854
  H        19.9658036392       20.2526829427       22.2507218532
  H        19.8391772235       20.6009429750       20.7578455249
  H        20.0449423030       19.4426890730       19.3359957905
  O        19.5148755288       19.8857937007       18.5543990325
  O        20.4232034441       20.1448917733       21.3298087955
       6
 i =       26, time =       26.000, E =       -34.4071512444
  H        20.2248416738       19.8253118800       17.8706884570
  H        19.9640072501       20.2212417047       22.2274006091
  H        19.8505120363       20.5868695099       20.7769908742
  H        20.0425732563       19.4295367515       19.3453861994
  O        19.5148307878       19.8884512139       18.5518716508
  O        20.4235549153       20.1450500908       21.3317686086
       6
 i =       27, time =       27.000, E =       -34.4119325499
  H        20.2186454899       19.8299934806       17.8725392538
  H        19.9689955369       20.1877338933       22.1924694596
  H        19.8367861574       20.5943246436       20.7710415135
  H        20.0257820893       19.4263143681       19.3368540652
  O        19.5159636709       19.8903467627       18.5504764995
  O        20.4250217601       20.1440669318       21.3360171231
       6
 i =       28, time =       28.000, E =       -34.4152784454
  H        20.2118556702       19.8361369659       17.8721605290
  H        19.9734218498       20.1531857176       22.1609638631
  H        19.8068915424       20.6165042919       20.7480562287
  H        19.9967596335       19.4318598822       19.3127450840
  O        19.5179878805       19.8915761297       18.5501992394
  O        20.4275010832       20.1423009996       21.3410912892
       6
 i =       29, time =       29.000, E =       -34.4131073379
  H        20.2065920250       19.8435739711       17.8677299888
  H        19.9679190204       20.1179178096       22.1494278513
  H        19.7777662489       20.6402788504       20.7244451574
  H        19.9613872214       19.4412880713       19.2814785822
  O        19.5204052279       19.8924637172       18.5506246571
  O        20.4305136541       20.1405515702       21.3449011299
       6
 i =       30, time =       30.000, E =       -34.4101722217
  H        20.2035488427       19.8522063406       17.8589621612
  H        19.9487699829       20.0814879464       22.1623843105
  H        19.7612703249       20.6562002990       20.7121844182
  H        19.9290918745       19.4455867627       19.2576896156
  O        19.5225774759       19.8935911192       18.5508476348
  O        20.4335503821       20.1394330351       21.3463939769
       6
 i =       31, time =       31.000, E =       -34.4105635145
  H        20.2019407506       19.8618121840       17.8475513928
  H        19.9220771633       20.0442146196       22.1873578651
  H        19.7623560644       20.6600161717       20.7166818216
  H        19.9089559811       19.4351340980       19.2559264979
  O        19.5239773149       19.8955865689       18.5498366072
  O        20.4359207289       20.1391825442       21.3460090282
       6
 i =       32, time =       32.000, E =       -34.4138326833
  H        20.2004616171       19.8718603282       17.8363707200
  H        19.8975008542       20.0078172845       22.2072681616
  H        19.7806165218       20.6516681493       20.7380075030
  H        19.9022057205       19.4085857802       19.2768879071
  O        19.5246065839       19.8985736605       18.5473522294
  O        20.4370441418       20.1396906298       21.3448150427
       6
 i =       33, time =       33.000, E =       -34.4144231838
  H        20.1983330909       19.8815538534       17.8280579930
  H        19.8821472066       19.9743251271       22.2106569393
  H        19.8105138219       20.6352810675       20.7710954576
  H        19.9022519264       19.3749111183       19.3058422699
  O        19.5249339575       19.9020370608       18.5441427341
  O        20.4368185157       20.1405657105       21.3438524828
       6
 i =       34, time =       34.000, E =       -34.4108958547
  H        20.1957295990       19.8900655244       17.8240117056
  H        19.8792023106       19.9450879719       22.1933722502
  H        19.8403691287       20.6201333754       20.8048682908
  H        19.9021472057       19.3449536313       19.3265124455
  O        19.5253954909       19.9053377503       18.5411386913
  O        20.4357728924       20.1411334707       21.3440808157
       6
 i =       35, time =       35.000, E =       -34.4092664449
  H        20.1936482993       19.8967673801       17.8241663761
  H        19.8879311731       19.9201766442       22.1579615158
  H        19.8545264979       20.6192055701       20.8243297190
  H        19.8980817907       19.3258089541       19.3291688401
  O        19.5261757455       19.9080529753       18.5389589134
  O        20.4349339639       20.1405630499       21.3462844752
       6
 i =       36, time =       36.000, E =       -34.4132779374
  H        20.1934531777       19.9013628463       17.8273731585
  H        19.9029805722       19.8976306606       22.1139017514
  H        19.8453350319       20.6394998327       20.8217203027
  H        19.8890670295       19.3201683529       19.3109216771
  O        19.5272515409       19.9100152601       18.5378632457
  O        20.4351178499       20.1385212430       21.3503595362
       6
 i =       37, time =       37.000, E =       -34.4152297399
  H        20.1962442688       19.9039402963       17.8320928260
  H        19.9139559803       19.8729067162       22.0768749731
  H        19.8223740748       20.6734562017       20.8052035563
  H        19.8763561091       19.3264515984       19.2749015426
  O        19.5284672142       19.9113050271       18.5377556681
  O        20.4363811389       20.1357542227       21.3548081073
       6
 i =       38, time =       38.000, E =       -34.4133392437
  H        20.2022892520       19.9049660308       17.8370762293
  H        19.9098206156       19.8406489848       22.0614023122
  H        19.8011744134       20.7072488634       20.7890523448
  H        19.8635994519       19.3381051399       19.2306160922
  O        19.5295623050       19.9122981115       18.5381170251
  O        20.4384555235       20.1334566793       21.3578217071
       6
 i =       39, time =       39.000, E =       -34.4110722270
  H        20.2108631625       19.9051899467       17.8417058625
  H        19.8890468071       19.8001468882       22.0674701597
  H        19.7919943696       20.7305843616       20.7833387957
  H        19.8568380194       19.3434639194       19.1933659405
  O        19.5301854736       19.9136806601       18.5380178315
  O        20.4408089384       20.1323062854       21.3587712170
       6
 i =       40, time =       40.000, E =       -34.4113644269
  H        20.2206547079       19.9054366807       17.8459044444
  H        19.8612044987       19.7572947260       22.0807666356
  H        19.7986234132       20.7386774080       20.7923249404
  H        19.8615710922       19.3311680235       19.1770226039
  O        19.5300581930       19.9161168028       18.5365825450
  O        20.4426121085       20.1322202235       21.3582942493
       6
 i =       41, time =       41.000, E =       -34.4139029517
  H        20.2304071390       19.9063563593       17.8498589352
  H        19.8375166257       19.7196413495       22.0863979445
  H        19.8198145874       20.7316235108       20.8154624984
  H        19.8769137075       19.3012848151       19.1815987871
  O        19.5293072133       19.9195564458       18.5337942152
  O        20.4432406416       20.1327102737       21.3573689189
       6
 i =       42, time =       42.000, E =       -34.4139005107
  H        20.2392667178       19.9083118443       17.8538172087
  H        19.8251053432       19.6923540592       22.0759522154
  H        19.8494707307       20.7146347310       20.8475422177
  H        19.8957148124       19.2658162738       19.1944153082
  O        19.5284356498       19.9232097379       18.5304424109
  O        20.4426272573       20.1331156452       21.3568594851
       6
 i =       43, time =       43.000, E =       -34.4108228523
  H        20.2467796628       19.9114692234       17.8579345146
  H        19.8264495785       19.6772944012       22.0475189168
  H        19.8761109404       20.6989051087       20.8783334545
  H        19.9106671699       19.2376978752       19.2026228577
  O        19.5279344178       19.9262387546       18.5273427932
  O        20.4413329796       20.1326067947       21.3575392147
       6
 i =       44, time =       44.000, E =       -34.4101947059
  H        20.2527944055       19.9159638273       17.8621302314
  H        19.8394675822       19.6726534382       22.0049480075
  H        19.8861789214       20.6986885218       20.8955300361
  H        19.9174116217       19.2247218202       19.1990645417
  O        19.5280891678       19.9281338080       18.5249695802
  O        20.4403397396       20.1303903177       21.3599513651
       6
 i =       45, time =       45.000, E =       -34.4131903964
  H        20.2573652850       19.9220159499       17.8660305121
  H        19.8565112719       19.6720425013       21.9580445896
  H        19.8753429962       20.7196935600       20.8945392199
  H        19.9145273276       19.2291833860       19.1821139327
  O        19.5289851643       19.9287291238       18.5234640312
  O        20.4404094328       20.1264978179       21.3637815379
       6
 i =       46, time =       46.000, E =       -34.4136499797
  H        20.2606423267       19.9299635680       17.8690367444
  H        19.8644381064       19.6647349625       21.9210919278
  H        19.8537796421       20.7522975551       20.8832144337
  H        19.9032445652       19.2482387043       19.1549829162
  O        19.5305317895       19.9281755806       18.5226712190
  O        20.4417484091       20.1221952081       21.3676512998
       6
 i =       47, time =       47.000, E =       -34.4124309799
  H        20.2627592858       19.9402014235       17.8705097041
  H        19.8520376736       19.6417695207       21.9042694124
  H        19.8351739979       20.7819422850       20.8728658627
  H        19.8877305038       19.2734341637       19.1259605952
  O        19.5324509390       19.9269751268       18.5221124528
  O        20.4442287350       20.1189513817       21.3702159078
       6
 i =       48, time =       48.000, E =       -34.4109631446
  H        20.2637867762       19.9530008936       17.8700384578
  H        19.8219815140       19.6055889704       21.9034838552
  H        19.8281262925       20.7985550005       20.8709710352
  H        19.8748976560       19.2913236174       19.1077046259
  O        19.5342917248       19.9259568720       18.5210151082
  O        20.4471627140       20.1172393828       21.3712682842
       6
 i =       49, time =       49.000, E =       -34.4112201653
  H        20.2638273310       19.9682473302       17.8676893389
  H        19.7878396030       19.5676574671       21.9057617188
  H        19.8355376691       20.7980989174       20.8803134950
  H        19.8709659589       19.2902913525       19.1108181387
  O        19.5356431590       19.9258642134       18.5187056339
  O        20.4495190134       20.1165861750       21.3714575282
       6
 i =       50, time =       50.000, E =       -34.4132919649
  H        20.2631936602       19.9852909553       17.8640482826
  H        19.7621394287       19.5385784473       21.9006328395
  H        19.8557237157       20.7819587750       20.8996988519
  H        19.8758410370       19.2716615604       19.1335581690
  O        19.5364817560       19.9266619819       18.5152627416
  O        20.4506080058       20.1162326287       21.3715280816
       6
 i =       51, time =       51.000, E =       -34.4130952473
  H        20.2624322179       20.0030962131       17.8600207640
  H        19.7518234261       19.5240347834       21.8833441372
  H        19.8824636060       20.7571721555       20.9239834362
  H        19.8840172124       19.2482451875       19.1631099197
  O        19.5371162570       19.9276155255       18.5114532033
  O        20.4503740224       20.1153704023       21.3721135633
       6
 i =       52, time =       52.000, E =       -34.4108846697
  H        20.2621074485       20.0205712945       17.8565915044
  H        19.7584657915       19.5248297046       21.8539094905
  H        19.9050782431       20.7365463276       20.9441584107
  H        19.8902557688       19.2328146823       19.1864320195
  O        19.5378419698       19.9279946407       18.5080598967
  O        20.4493828289       20.1131329711       21.3737903053
       6
 i =       53, time =       53.000, E =       -34.4113025855
  H        20.2625486187       20.0368235216       17.8546858573
  H        19.7782372871       19.5368154906       21.8164389366
  H        19.9128282771       20.7337907729       20.9508154385
  H        19.8919732187       19.2325353640       19.1957745520
  O        19.5388027678       19.9274081974       18.5055365127
  O        20.4485542243       20.1089090088       21.3768991032
       6
 i =       54, time =       54.000, E =       -34.4133959818
  H        20.2637531593       20.0512721562       17.8550746639
  H        19.8006701346       19.5500833607       21.7791054467
  H        19.9045991342       20.7518658844       20.9420649689
  H        19.8890294445       19.2488586720       19.1890147878
  O        19.5400076586       19.9258035490       18.5039892641
  O        20.4486311116       20.1031357384       21.3810435688
       6
 i =       55, time =       55.000, E =       -34.4131804837
  H        20.2654882417       20.0636909984       17.8582252393
  H        19.8099256662       19.5505903682       21.7521523907
  H        19.8903562004       20.7798417254       20.9254274175
  H        19.8834721934       19.2779825866       19.1694668896
  O        19.5413388913       19.9234372970       18.5031984671
  O        20.4500041486       20.0974080451       21.3850877628
       6
 i =       56, time =       56.000, E =       -34.4126361285
  H        20.2675336497       20.0742239998       17.8641022640
  H        19.7956623414       19.5298373078       21.7406829505
  H        19.8812257603       20.8037125762       20.9103743044
  H        19.8798162312       19.3106979124       19.1463592804
  O        19.5425186347       19.9208883627       18.5026001819
  O        20.4526397235       20.0931867991       21.3880775510
       6
 i =       57, time =       57.000, E =       -34.4117180917
  H        20.2699773932       20.0833430129       17.8720309273
  H        19.7646992513       19.4946111942       21.7394009775
  H        19.8835048467       20.8142175414       20.9031213627
  H        19.8845979121       19.3340944260       19.1334042827
  O        19.5431202303       19.9189549764       18.5013839532
  O        20.4557082566       20.0906723754       21.3899173382
       6
 i =       58, time =       58.000, E =       -34.4122790583
  H        20.2734121974       20.0917014024       17.8807949988
  H        19.7329723183       19.4595977389       21.7389894324
  H        19.8985871360       20.8080371720       20.9059189853
  H        19.9024925538       19.3395578185       19.1404728429
  O        19.5428057601       19.9181592534       18.4990120877
  O        20.4580955857       20.0891802819       21.3910246470
       6
 i =       59, time =       59.000, E =       -34.4137919839
  H        20.2787401730       20.0999060954       17.8890996139
  H        19.7129276467       19.4362179950       21.7330431872
  H        19.9238636133       20.7873977097       20.9173466423
  H        19.9310920796       19.3312738711       19.1637643649
  O        19.5416730379       19.9182185352       18.4958113376
  O        20.4591508495       20.0878668228       21.3918755914
       6
 i =       60, time =       60.000, E =       -34.4132255385
  H        20.2864565373       20.1083143676       17.8962431689
  H        19.7104757957       19.4298173119       21.7190698828
  H        19.9528640960       20.7603150848       20.9321313434
  H        19.9627258892       19.3213057485       19.1902475079
  O        19.5401849909       19.9183629722       18.4926513233
  O        20.4588829927       20.0858968287       21.3929490763
       6
 i =       61, time =       61.000, E =       -34.4118669246
  H        20.2959462125       20.1169733504       17.9024806318
  H        19.7257597884       19.4402716510       21.6976326243
  H        19.9760235876       20.7398959649       20.9415330073
  H        19.9901452970       19.3197236051       19.2084606399
  O        19.5388497238       19.9179615590       18.4902412980
  O        20.4578703518       20.0824596345       21.3947516986
       6
 i =       62, time =       62.000, E =       -34.4128960714
  H        20.3054708584       20.1257343147       17.9087437777
  H        19.7529050097       19.4618135499       21.6720053200
  H        19.9854989083       20.7380086681       20.9375431956
  H        20.0089761407       19.3313281317       19.2125525683
  O        19.5380646237       19.9167235380       18.4888945582
  O        20.4569708296       20.0771836583       21.3975711037
       6
 i =       63, time =       63.000, E =       -34.4138095270
  H        20.3128544311       20.1344800234       17.9159298110
  H        19.7787362040       19.4822410965       21.6480530440
  H        19.9823426473       20.7546685199       20.9202115421
  H        20.0178066109       19.3561856323       19.2020668642
  O        19.5380652277       19.9146531798       18.4885879906
  O        20.4569447588       20.0708544855       21.4010208322
       6
 i =       64, time =       64.000, E =       -34.4132082616
  H        20.3163603798       20.1433552812       17.9242186979
  H        19.7857379294       19.4861218795       21.6322712226
  H        19.9751691843       20.7781682995       20.8977115579
  H        20.0182556723       19.3902601581       19.1816348736
  O        19.5388636900       19.9119995296       18.4890251228
  O        20.4583503616       20.0651964147       21.4041634465
       6
 i =       65, time =       65.000, E =       -34.4134033389
  H        20.3153205344       20.1528883852       17.9327456022
  H        19.7661143847       19.4673006344       21.6265277812
  H        19.9722391552       20.7956416392       20.8790718715
  H        20.0154645542       19.4257058439       19.1611600362
  O        19.5401774128       19.9092321714       18.4896420063
  O        20.4611588668       20.0614156463       21.4063021216
       6
 i =       66, time =       66.000, E =       -34.4125438203