       9
 i =        1, time =        1.000, E =       -51.6354141148
  H        21.0470344918       21.8366051567       18.5406832254
  H        20.2344700245       18.2276670564       18.3151638798
  H        19.5413279064       18.9539189704       19.6430158118
  H        19.4175988387       20.4100943278       21.6563774268
  H        19.6515727149       20.8298164345       20.2313556412
  H        20.3867832803       20.4127823750       18.5253092703
  O        20.2414688072       21.3396167019       18.7467516065
  O        20.3716972126       18.7227919972       19.1499602582
  O        18.9502164377       20.4303722986       20.8281021342
       9
 i =        2, time =        2.000, E =       -51.6341932838
  H        21.0506855998       21.8722335310       18.5259154170
  H        20.2169867496       18.2555014878       18.3101019464
  H        19.5501462760       18.9432947394       19.6596782980
  H        19.4217176163       20.4129559784       21.6513302887
  H        19.6285019435       20.8295506897       20.2465672460
  H        20.3903957189       20.4289259973       18.5226098741
  O        20.2473823275       21.3420162913       18.7459042217
  O        20.3701517636       18.7150564831       19.1523335430
  O        18.9471375928       20.4310223839       20.8264873614
       9
 i =        3, time =        3.000, E =       -51.6346248984
  H        21.0506375353       21.9018726706       18.5118092408
  H        20.1928459225       18.2809227430       18.3061803099
  H        19.5565519245       18.9304350529       19.6740056562
  H        19.4299844898       20.4136916374       21.6600827887
  H        19.6071659592       20.8366828283       20.2545358202
  H        20.4017213796       20.4265281070       18.5158335206
  O        20.2532152438       21.3461246988       18.7451805761
  O        20.3691194297       18.7072585494       19.1548834792
  O        18.9435688683       20.4314113810       20.8245702017
       9
 i =        4, time =        4.000, E =       -51.6365102054
  H        21.0430499258       21.9220325832       18.4994078875
  H        20.1618470919       18.3025771951       18.3008671349
  H        19.5603259377       18.9161131974       19.6861823931
  H        19.4384721268       20.4125459487       21.6755005747
  H        19.5925224142       20.8539105321       20.2509914016
  H        20.4205798733       20.4104145430       18.5061839083
  O        20.2592133241       21.3518551282       18.7444524912
  O        20.3686451050       18.6995193416       19.1577369554
  O        18.9394439634       20.4313299144       20.8230621852
       9
 i =        5, time =        5.000, E =       -51.6380193111
  H        21.0282938565       21.9324848369       18.4887481380
  H        20.1245628778       18.3204583854       18.2942076791
  H        19.5616758502       18.9012617135       19.6966355807
  H        19.4427024457       20.4100272742       21.6885862771
  H        19.5844192032       20.8807459413       20.2367618502
  H        20.4450736328       20.3920441882       18.4970118596
  O        20.2654642511       21.3584942751       18.7435305432
  O        20.3686953757       18.6919155621       19.1608113876
  O        18.9350474089       20.4307519434       20.8224702369
       9
 i =        6, time =        6.000, E =       -51.6381818255
  H        21.0105148619       21.9363095429       18.4787532070
  H        20.0825975816       18.3357136605       18.2889002095
  H        19.5613198118       18.8868575235       19.7058689606
  H        19.4399751074       20.4067321370       21.6929855732
  H        19.5779697457       20.9132372308       20.2173299745
  H        20.4727068960       20.3819674855       18.4917621532
  O        20.2718531967       21.3651710233       18.7422931317
  O        20.3691343540       18.6844455487       19.1638337917
  O        18.9308588012       20.4298667586       20.8228401401
       9
 i =        7, time =        7.000, E =       -51.6378672851
  H        20.9961700157       21.9389291229       18.4674551643
  H        20.0383218548       18.3498105762       18.2886299758
  H        19.5605006974       18.8738016490       19.7143303412
  H        19.4301298237       20.4031956970       21.6867607351
  H        19.5673329911       20.9461075506       20.1993895588
  H        20.5012224805       20.3862151205       18.4927287458
  O        20.2780922488       21.3711436934       18.7407407787
  O        20.3697426381       18.6770442968       19.1664875113
  O        18.9272616577       20.4289569889       20.8238611748
       9
 i =        8, time =        8.000, E =       -51.6385149690
  H        20.9909006420       21.9456275887       18.4529339399
  H        19.9943146069       18.3637863605       18.2960852823
  H        19.5608189435       18.8628354921       19.7224119138
  H        19.4155550526       20.3998037931       21.6726375654
  H        19.5485303538       20.9748343045       20.1881484115
  H        20.5290345404       20.4059572281       18.5006845839
  O        20.2838879433       21.3759819260       18.7389513713
  O        20.3702683667       18.6696282164       19.1685494515
  O        18.9243621706       20.4282736062       20.8250223141
       9
 i =        9, time =        9.000, E =       -51.6399154258
  H        20.9957119094       21.9582829936       18.4348271015
  H        19.9526798974       18.3779157934       18.3117621676
  H        19.5638891701       18.8545207093       19.7305848547
  H        19.4007679091       20.3967627928       21.6573257798
  H        19.5201394369       20.9965543888       20.1864898910
  H        20.5556347552       20.4377047748       18.5148559141
  O        20.2891658908       21.3797673812       18.7369833803
  O        20.3704889432       18.6621137105       19.1699553776
  O        18.9219721399       20.4279787827       20.8257104969
       9
 i =       10, time =       10.000, E =       -51.6406192868
  H        21.0061534292       21.9743604869       18.4149473839
  H        19.9145678752       18.3917208168       18.3337094138
  H        19.5709449881       18.8492845151       19.7395810918
  H        19.3909473746       20.3941576395       21.6489607900
  H        19.4831554643       21.0104979997       20.1948493937
  H        20.5820669627       20.4733443689       18.5331176006
  O        20.2941047339       21.3831588050       18.7348292121
  O        20.3702648302       18.6544354941       19.1707942287
  O        18.9197030748       20.4281156773       20.8253806029
       9
 i =       11, time =       11.000, E =       -51.6404340414
  H        21.0155781470       21.9893113232       18.3961700969
  H        19.8799433233       18.4041984587       18.3580683327
  H        19.5825561226       18.8475064358       19.7504928907
  H        19.3891152966       20.3921522860       21.6521410450
  H        19.4409531426       21.0185095127       20.2109398598
  H        20.6109286273       20.5016347844       18.5527254598
  O        20.2989342534       21.3871454884       18.7324496516
  O        20.3695700898       18.6465505914       19.1712562768
  O        18.9171474934       20.4285610648       20.8238846056
       9
 i =       12, time =       12.000, E =       -51.6402595924
  H        21.0188464862       21.9995765934       18.3808498270
  H        19.8478293649       18.4142404974       18.3803648539
  H        19.5985942401       18.8495786377       19.7646610681
  H        19.3940684312       20.3912060847       21.6641946027
  H        19.3991173524       21.0255247579       20.2295177483
  H        20.6448204752       20.5135296736       18.5718403149
  O        20.3037966153       21.3925145847       18.7297901752
  O        20.3684807204       18.6384223813       19.1715494985
  O        18.9140200248       20.4289773231       20.8217223232
       9
 i =       13, time =       13.000, E =       -51.6405927273
  H        21.0140910360       22.0041294566       18.3698982740
  H        19.8171539665       18.4211493819       18.3973359832
  H        19.6185011323       18.8558712099       19.7832814097
  H        19.4015953027       20.3920199929       21.6772886647
  H        19.3641385967       21.0386703012       20.2435828595
  H        20.6834837737       20.5089870392       18.5907944198
  O        20.3088145840       21.3993203349       18.7267693624
  O        20.3671104106       18.6300265876       19.1718044450
  O        18.9101703766       20.4288674455       20.8198345705
       9
 i =       14, time =       14.000, E =       -51.6414692317
  H        21.0029611669       22.0047609109       18.3625105174
  H        19.7876908109       18.4249958823       18.4084044926
  H        19.6417544911       18.8665875017       19.8068205364
  H        19.4074315751       20.3952395286       21.6837743231
  H        19.3400689942       21.0632133920       20.2483812221
  H        20.7229255279       20.4967659060       18.6113695523
  O        20.3141298415       21.4068768210       18.7233464192
  O        20.3655242327       18.6213626620       19.1720186680
  O        18.9056146719       20.4278457679       20.8190136349
       9
 i =       15, time =       15.000, E =       -51.6420444668
  H        20.9899644108       22.0055782912       18.3563510889
  H        19.7603888901       18.4265649888       18.4156979405
  H        19.6682450554       18.8815690158       19.8345238910
  H        19.4091779458       20.4012026018       21.6797088911
  H        19.3256651878       21.0976934181       20.2453406104
  H        20.7577989819       20.4874915540       18.6350382168
  O        20.3197940752       21.4142282540       18.7196155159
  O        20.3636960046       18.6124801662       19.1720897246
  O        18.9005977825       20.4259608372       20.8194278423
       9
 i =       16, time =       16.000, E =       -51.6417400360
  H        20.9806196415       22.0114451514       18.3484194408
  H        19.7367479839       18.4269593021       18.4226467680
  H        19.6982845892       18.9001574536       19.8643056170
  H        19.4068616298       20.4098707678       21.6658044220
  H        19.3159360260       21.1345479998       20.2405625949
  H        20.7839712297       20.4885237940       18.6621261166
  O        20.3257227800       21.4205749494       18.7157883869
  O        20.3615380374       18.6035053170       19.1719195065
  O        18.8954632114       20.4236648901       20.8206492153
       9
 i =       17, time =       17.000, E =       -51.6414439991
  H        20.9783460873       22.0252103585       18.3367464778
  H        19.7177667178       18.4271713632       18.4322698476
  H        19.7322615948       18.9212028576       19.8931258458
  H        19.4028050298       20.4209236852       21.6469515647
  H        19.3058149259       21.1652383714       20.2400841169
  H        20.7995793032       20.5027707620       18.6919069655
  O        20.3318156311       21.4255293448       18.7120646566
  O        20.3589647156       18.5945978385       19.1715128888
  O        18.8904260214       20.4214928184       20.8219786880
       9
 i =       18, time =       18.000, E =       -51.6416993037
  H        20.9821574551       22.0454546258       18.3218552310
  H        19.7031734106       18.4278329149       18.4460336133
  H        19.7701963146       18.9432362022       19.9177579533
  H        19.4007821697       20.4339400395       21.6304815895
  H        19.2920394977       21.1838835716       20.2472355489
  H        20.8053660606       20.5289031372       18.7230355506
  O        20.3380984649       21.4292481462       18.7085065071
  O        20.3559710201       18.5858849186       19.1709980840
  O        18.8854978170       20.4198288465       20.8227267063
       9
 i =       19, time =       19.000, E =       -51.6419567335
  H        20.9877059929       22.0671919024       18.3064013917
  H        19.6911663557       18.4291628419       18.4634882410
  H        19.8113856203       18.9647764996       19.9355994622
  H        19.4039758616       20.4485169786       21.6226484783
  H        19.2733333374       21.1884158986       20.2623152635
  H        20.8048318964       20.5614376330       18.7540883716
  O        20.3446391519       21.4323867179       18.7050310167
  O        20.3526788199       18.5774385859       19.1705908424
  O        18.8805939434       20.4188314794       20.8224639777
       9
 i =       20, time =       20.000, E =       -51.6413415714
  H        20.9904342848       22.0847758173       18.2934226116
  H        19.6787288128       18.4310842950       18.4826512434
  H        19.8543402756       18.9847124472       19.9453123656
  H        19.4124834954       20.4641575754       21.6247415135
  H        19.2502623940       21.1808392735       20.2828124987
  H        20.8038709689       20.5913292582       18.7841598856
  O        20.3513824903       21.4358778172       18.7014904531
  O        20.3493346337       18.5692614246       19.1705245418
  O        18.8756941243       20.4184255091       20.8212579655
       9
 i =       21, time =       21.000, E =       -51.6398729301
  H        20.9879388439       22.0944493784       18.2848259217
  H        19.6626452613       18.4334792793       18.5011472602
  H        19.8969039440       19.0026487873       19.9472473456
  H        19.4228505641       20.4800624227       21.6325667643
  H        19.2252302369       21.1674011317       20.3035372710
  H        20.8087624466       20.6092428084       18.8132035790
  O        20.3581016905       21.4405672046       18.6977581803
  O        20.3462523635       18.5612988483       19.1709499433
  O        18.8708741024       20.4182945090       20.8196979965
       9
 i =       22, time =       22.000, E =       -51.6385184054
  H        20.9808497281       22.0956255085       18.2806562508
  H        19.6410279350       18.4364763943       18.5177564668
  H        19.9365133572       19.0190928291       19.9434866537
  H        19.4302659907       20.4951963079       21.6398175719
  H        19.2020415993       21.1576485684       20.3174182761
  H        20.8224049503       20.6118839582       18.8413081555
  O        20.3645746708       21.4467333111       18.6938290129
  O        20.3437071729       18.5534207704       19.1718353182
  O        18.8662008110       20.4179250635       20.8186293880
       9
 i =       23, time =       23.000, E =       -51.6378309577
  H        20.9727685862       22.0911319426       18.2789420085
  H        19.6144294663       18.4405543317       18.5333299476
  H        19.9707119948       19.0352832285       19.9372485365
  H        19.4310678526       20.5086342168       21.6416617543
  H        19.1839572960       21.1601010779       20.3184734927
  H        20.8423696607       20.6050169345       18.8673878244
  O        20.3707102561       21.4538725702       18.6899114520
  O        20.3418325986       18.5454523722       19.1729440129
  O        18.8617020593       20.4168485601       20.8187367597
       9
 i =       24, time =       24.000, E =       -51.6374824290
  H        20.9692144261       22.0862216317       18.2762503632
  H        19.5855811424       18.4463334222       18.5502530247
  H        19.9977738806       19.0525068635       19.9315690793
  H        19.4240104659       20.5199071674       21.6364645850
  H        19.1710173262       21.1757579447       20.3060530826
  H        20.8633595166       20.5987144120       18.8891934514
  O        20.3764644575       21.4610425512       18.6863885043
  O        20.3405859681       18.5372445345       19.1739466124
  O        18.8574631720       20.4150289066       20.8201651019
       9
 i =       25, time =       25.000, E =       -51.6369667579
  H        20.9750021879       22.0857761880       18.2694097985
  H        19.5579861253       18.4542165538       18.5709613452
  H        20.0172948190       19.0711150989       19.9278271642
  H        19.4105185814       20.5292041621       21.6261376018
  H        19.1600672638       21.1971110825       20.2853975539
  H        20.8806822947       20.6011783759       18.9045031379
  O        20.3817884057       21.4674133580       18.6836257875
  O        20.3397941885       18.5287548808       19.1746051433
  O        18.8536039583       20.4129224525       20.8224591584
       9
 i =       26, time =       26.000, E =       -51.6364581480
  H        20.9909509558       22.0908114429       18.2578135913
  H        19.5343802678       18.4641363152       18.5966668107
  H        20.0302434477       19.0899693293       19.9252293785
  H        19.3942713212       20.5374063252       21.6156241749
  H        19.1474962521       21.2141461863       20.2636952895
  H        20.8919034620       20.6161275505       18.9120789804
  O        20.3867414798       21.4726630567       18.6817560338
  O        20.3392364703       18.5200918701       19.1748880984
  O        18.8501346909       20.4111049628       20.8248427712
       9
 i =       27, time =       27.000, E =       -51.6361871103
  H        21.0130890244       22.0977770432       18.2440271025
  H        19.5158048374       18.4755093684       18.6268607597
  H        20.0384956313       19.1068365279       19.9216997716
  H        19.3798412559       20.5458571958       21.6110651753
  H        19.1311479826       21.2196067249       20.2466115218
  H        20.8972272404       20.6424961704       18.9120891849
  O        20.3915298006       21.4770593731       18.6806108922
  O        20.3387243057       18.5114778081       19.1749531669
  O        18.8469183626       20.4099561209       20.8265544752
       9
 i =       28, time =       28.000, E =       -51.6361624612
  H        21.0353295182       22.1014940242       18.2319241741
  H        19.5014340246       18.4873544661       18.6594885753
  H        20.0442303169       19.1194049914       19.9153716031
  H        19.3702571812       20.5557517459       21.6163552683
  H        19.1105834927       21.2106315679       20.2371153552
  H        20.8995373732       20.6746350317       18.9062327578
  O        20.3963410367       21.4812705266       18.6798326820
  O        20.3381529559       18.5031588490       19.1750488672
  O        18.8437909493       20.4095945309       20.8271420307
       9
 i =       29, time =       29.000, E =       -51.6359464034
  H        21.0526241381       22.0983760237       18.2244577944
  H        19.4890758444       18.4984930340       18.6915629192
  H        20.0494661227       19.1262413622       19.9057003123
  H        19.3650282778       20.5674492954       21.6301786943
  H        19.0868116655       21.1888397113       20.2352106433
  H        20.9039086574       20.7032780879       18.8974712372
  O        20.4011768031       21.4860996024       18.6790336685
  O        20.3375071581       18.4953191688       19.1754058469
  O        18.8407050134       20.4099121127       20.8266704414
       9
 i =       30, time =       30.000, E =       -51.6353087238
  H        21.0626391460       22.0879016969       18.2225073377
  H        19.4763294848       18.5077456148       18.7201404986
  H        20.0557650348       19.1273276620       19.8938808205
  H        19.3607532494       20.5803956145       21.6466914878
  H        19.0620803868       21.1602959789       20.2376175919
  H        20.9153657510       20.7191786823       18.8888694763
  O        20.4058852517       21.4921577149       18.6779441324
  O        20.3368158262       18.4880281940       19.1761501301
  O        18.8377174038       20.4105758287       20.8257033740
       9
 i =       31, time =       31.000, E =       -51.6342464939
  H        21.0662961554       22.0727505417       18.2246076808
  H        19.4620136747       18.5140592754       18.7432796227
  H        20.0640551936       19.1241135020       19.8826470295
  H        19.3535920552       20.5937073176       21.6591365551
  H        19.0395140046       21.1347377824       20.2379474265
  H        20.9349284684       20.7191911752       18.8817638583
  O        20.4103692908       21.4994717305       18.6765476041
  O        20.3360797155       18.4812369277       19.1772526733
  O        18.8348541660       20.4110348564       20.8250678262
       9
 i =       32, time =       32.000, E =       -51.6331946930
  H        21.0675048792       22.0580597353       18.2272966938
  H        19.4469581806       18.5165882393       18.7604656837
  H        20.0746114230       19.1190308474       19.8755041707
  H        19.3412656474       20.6068188333       21.6630465021
  H        19.0219577788       21.1217650946       20.2293356519
  H        20.9580161981       20.7085112939       18.8751755449
  O        20.4146977169       21.5073878526       18.6750975319
  O        20.3352226526       18.4748191354       19.1785459933
  O        18.8320615713       20.4107149914       20.8254871272
       9
 i =       33, time =       33.000, E =       -51.6330104882
  H        21.0715057482       22.0495430873       18.2263955488
  H        19.4335455476       18.5147961924       18.7723950717
  H        20.0872671376       19.1144369919       19.8754446496
  H        19.3238474749       20.6198778837       21.6577654289
  H        19.0102441935       21.1242132955       20.2098525275
  H        20.9775880887       20.6960483305       18.8671994417
  O        20.4189988081       21.5149799231       18.6739541553
  O        20.3341037941       18.4686398503       19.1798143016
  O        18.8292702457       20.4094112343       20.8271398859
       9
 i =       34, time =       34.000, E =       -51.6332724438
  H        21.0815438192       22.0505715659       18.2193416898
  H        19.4243973089       18.5085723267       18.7803678843
  H        20.1017646541       19.1113300212       19.8835584942
  H        19.3037172103       20.6339230951       21.6466775229
  H        19.0028927733       21.1359364203       20.1848896766
  H        20.9880039347       20.6890575562       18.8564481228
  O        20.4234161872       21.5215669140       18.6733532102
  O        20.3325743142       18.4626201677       19.1809156691
  O        18.8264141439       20.4074232832       20.8294862954
       9
 i =       35, time =       35.000, E =       -51.6334048462
  H        21.0961680101       22.0601822920       18.2070308989
  H        19.4210714879       18.4982725400       18.7856682067
  H        20.1179395917       19.1086939985       19.8983887963
  H        19.2847274986       20.6507672580       21.6360578543
  H        18.9976749411       21.1472793194       20.1629036359
  H        20.9866841032       20.6909407274       18.8425121742
  O        20.4281930384       21.5269778484       18.6732625926
  O        20.3305437897       18.4567858110       19.1818603223
  O        18.8233870492       20.4052254245       20.8315993988
       9
 i =       36, time =       36.000, E =       -51.6338682629
  H        21.1102353048       22.0741174315       18.1931419189
  H        19.4232953326       18.4846458123       18.7891355333
  H        20.1355704489       19.1040486779       19.9165689751
  H        19.2702964171       20.6722480009       21.6319350015
  H        18.9929084802       21.1508185242       20.1504015371
  H        20.9743056241       20.7009246644       18.8258757288
  O        20.4335972558       21.5315157862       18.6734288557
  O        20.3280353629       18.4512424583       19.1827983295
  O        18.8200765314       20.4031544493       20.8326781195
       9
 i =       37, time =       37.000, E =       -51.6348948078
  H        21.1183410619       22.0876003816       18.1817704092
  H        19.4288889710       18.4686789061       18.7909968637
  H        20.1541078619       19.0947453953       19.9342714122
  H        19.2611320296       20.6988458916       21.6360142850
  H        18.9877456252       21.1433515458       20.1499907805
  H        20.9545603262       20.7141376888       18.8076820365
  O        20.4397417284       21.5357878621       18.6735381014
  O        20.3252074607       18.4460994789       19.1839420315
  O        18.8164859495       20.4013706897       20.8324341328
       9
 i =       38, time =       38.000, E =       -51.6357790960
  H        21.1173898110       22.0973751088       18.1755687116
  H        19.4344682545       18.4514115229       18.7910269387
  H        20.1725591526       19.0791358978       19.9485956265
  H        19.2547176915       20.7288238217       21.6444384764
  H        18.9821143112       21.1259590918       20.1601640762
  H        20.9332529854       20.7224832973       18.7893187607
  O        20.4464709802       21.5405175047       18.6733568245
  O        20.3223189924       18.4414070508       19.1854702845
  O        18.8127732789       20.3999062772       20.8311932265
       9
 i =       39, time =       39.000, E =       -51.6362280100
  H        21.1075569248       22.1025447933       18.1749375954
  H        19.4368875699       18.4337801656       18.7890606733
  H        20.1895577217       19.0572131384       19.9584964284
  H        19.2471674107       20.7589496849       21.6508313995
  H        18.9767245877       21.1037453327       20.1754421030
  H        20.9157915183       20.7180871230       18.7716789284
  O        20.4534504091       21.5462760253       18.6728280366
  O        20.3196409034       18.4371234136       19.1874399608
  O        18.8091374228       20.3986350882       20.8297022655
       9
 i =       40, time =       40.000, E =       -51.6362073222
  H        21.0923529729       22.1047791052       18.1778094137
  H        19.4348227524       18.4165568257       18.7856304119
  H        20.2035187206       19.0307374945       19.9652072252
  H        19.2354001305       20.7860076566       21.6501744456
  H        18.9729802595       21.0847732785       20.1873142098
  H        20.9038244372       20.6990156763       18.7544680988
  O        20.4603670895       21.5530986386       18.6721281170
  O        20.3173476337       18.4331095756       19.1897219441
  O        18.8056892207       20.3972415853       20.8288264451
       9
 i =       41, time =       41.000, E =       -51.6358953791
  H        21.0778450756       22.1078770148       18.1800322541
  H        19.4293743530       18.4003877015       18.7822231340
  H        20.2128414585       19.0028096981       19.9719723222
  H        19.2182066449       20.8079637365       21.6408355216
  H        18.9722786414       21.0764097042       20.1876791943
  H        20.8946188094       20.6715348392       18.7364216830
  O        20.4670066231       21.5603554877       18.6716278551
  O        20.3154675999       18.4291544098       19.1920034373
  O        18.8024291508       20.3953741839       20.8291983647
       9
 i =       42, time =       42.000, E =       -51.6359699462
  H        21.0702418255       22.1159056689       18.1770728401
  H        19.4231607433       18.3858272852       18.7808557938
  H        20.2161756838       18.9766776180       19.9826839591
  H        19.1964121173       20.8246509857       21.6249656563
  H        18.9747408194       21.0797999998       20.1741997899
  H        20.8840242578       20.6457048863       18.7162706840
  O        20.4732151392       21.5671371333       18.6717210248
  O        20.3139251553       18.4250470076       19.1938999325
  O        18.7993182022       20.3929525778       20.8308449452
       9
 i =       43, time =       43.000, E =       -51.6362127617
  H        21.0721734665       22.1300215784       18.1669792414
  H        19.4186629702       18.3732804699       18.7832622376
  H        20.2127174635       18.9540642452       19.9995515254
  H        19.1724963607       20.8379699357       21.6078879701
  H        18.9788293101       21.0886475983       20.1518644083
  H        20.8692614710       20.6297787770       18.6933733952
  O        20.4789657149       21.5728145930       18.6725927030
  O        20.3126192259       18.4206825586       19.1951520296
  O        18.7963272630       20.3902392189       20.8331172349
       9
 i =       44, time =       44.000, E =       -51.6361406358
  H        21.0809801639       22.1468603247       18.1520094835
  H        19.4169251124       18.3628882488       18.7902191775
  H        20.2024214093       18.9342497836       20.0213497485
  H        19.1495673589       20.8512243886       21.5962207167
  H        18.9824589232       21.0941817872       20.1286924645
  H        20.8497214269       20.6276306699       18.6677292081
  O        20.4844288981       21.5773208390       18.6741133550
  O        20.3114916873       18.4161257909       19.1957783624
  O        18.7934296178       20.3875747594       20.8350762085
       9
 i =       45, time =       45.000, E =       -51.6362377072
  H        21.0910830824       22.1606474916       18.1369003703
  H        19.4171195431       18.3544474839       18.8012957267
  H        20.1860290916       18.9147915620       20.0439395528
  H        19.1296995937       20.8672061259       21.5945036461
  H        18.9841210354       21.0899511090       20.1112108100
  H        20.8266965888       20.6383104035       18.6396970573
  O        20.4898493420       21.5810557112       18.6759664093
  O        20.3105497369       18.4115683410       19.1960601162
  O        18.7906295258       20.3851974242       20.8359976590
       9
 i =       46, time =       46.000, E =       -51.6369108866
  H        21.0975089832       22.1665468499       18.1259223774
  H        19.4169928630       18.3474228030       18.8150522876
  H        20.1649156914       18.8931418690       20.0625427466
  H        19.1126614458       20.8860167538       21.6021998307
  H        18.9832457610       21.0734033581       20.1026642253
  H        20.8028401722       20.6563368812       18.6096050711
  O        20.4953622693       21.5846576435       18.6778547271