      24
 i =        1, time =        1.000, E =      -137.7378370734
  H        16.5484190414       21.8522187580       19.8853627201
  H        18.5558223112       20.2060010498       18.5079165873
  H        19.1510802456       18.8432011354       19.0331643397
  H        17.7863322530       17.0375699185       20.3552584841
  H        17.9773838446       18.4593804885       21.0865682980
  H        23.4217879038       21.9475731391       20.8752267972
  H        22.1751062496       21.3786318108       20.2891154355
  H        17.0274452000       20.1007926764       21.1534997463
  H        18.1140349034       20.3414879537       22.2894966203
  H        21.9983767023       20.8752225894       17.7373106067
  H        20.7659295867       20.3026221701       18.5429583259
  H        20.1302442876       19.0687139265       21.5542789685
  H        21.1632226470       20.2724553732       21.6765789333
  H        20.1330169060       23.0032036126       19.8153798055
  H        19.9020340631       22.3973473068       21.2246284094
  H        18.1258932804       21.8082009903       20.1265935047
  O        17.3643910154       21.3235828830       19.6922376960
  O        19.3299117778       19.6009272726       18.3936376773
  O        18.4208019303       17.8154931940       20.4123382718
  O        22.6540674398       21.4897691314       21.1474886097
  O        17.4219792458       19.6619781428       21.9679259004
  O        21.6113909989       20.8301628365       18.7025863990
  O        20.2512942295       20.0437527845       21.6808663721
  O        19.4427510415       22.8359266087       20.4527592892
      24
 i =        2, time =        2.000, E =      -137.7345363232
  H        16.5372325398       21.8681173602       19.8747692882
  H        18.5856254421       20.2207160940       18.5348492016
  H        19.1581882263       18.8206947030       19.0440579719
  H        17.8082911196       17.0568178748       20.3598665289
  H        17.9552030477       18.4511887549       21.0958897460
  H        23.4297467077       21.9643226115       20.8651778332
  H        22.1769044042       21.3975159080       20.3030567629
  H        17.0258459660       20.1127911184       21.1819758436
  H        18.1460385649       20.3512568758       22.3067298452
  H        21.9939066104       20.8596109041       17.7635669173
  H        20.7982814929       20.3179650986       18.5390846374
  H        20.1149019563       19.0548047986       21.5584659481
  H        21.1635294803       20.2887911008       21.6720705310
  H        20.1401009120       23.0337759603       19.8149734379
  H        19.9016427605       22.3969345016       21.2153740038
  H        18.1005680164       21.8126620214       20.1261272479
  O        17.3658561357       21.3245075623       19.6879627838
  O        19.3285301433       19.5969020909       18.3934780058
  O        18.4186014601       17.8132777681       20.4128931658
  O        22.6543744277       21.4869023163       21.1498520593
  O        17.4155684799       19.6561320230       21.9696932640
  O        21.6119003591       20.8287914132       18.6981909477
  O        20.2529406713       20.0452888175       21.6745761364
  O        19.4452466148       22.8427983041       20.4567229303
      24
 i =        3, time =        3.000, E =      -137.7316361718
  H        16.5379454828       21.8785552535       19.8601450804
  H        18.6130800600       20.2346754795       18.5638672587
  H        19.1635487363       18.8084598162       19.0484969128
  H        17.8303173608       17.0740369111       20.3634509317
  H        17.9396263826       18.4383544517       21.0992201704
  H        23.4482561666       21.9861794595       20.8545315566
  H        22.1756179359       21.4123404560       20.3077022819
  H        17.0272143460       20.1279110419       21.2098331710
  H        18.1616922213       20.3405255936       22.3131691635
  H        21.9864384286       20.8448418164       17.8037733284
  H        20.8150714479       20.3253663723       18.5368462446
  H        20.1055077947       19.0533260731       21.5625717717
  H        21.1854694665       20.3049388990       21.6678458796
  H        20.1526777255       23.0630360000       19.8102473947
  H        19.9016790152       22.3977283087       21.2009397093
  H        18.0811023445       21.8233383425       20.1253417577
  O        17.3661415364       21.3254502603       19.6838261440
  O        19.3272245519       19.5921481064       18.3935958356
  O        18.4162543533       17.8114123975       20.4138041852
  O        22.6542533713       21.4838869826       21.1527288161
  O        17.4099814280       19.6512890719       21.9721126801
  O        21.6135156305       20.8280683478       18.6928690484
  O        20.2529170922       20.0461255975       21.6684084675
  O        19.4474657925       22.8498813592       20.4614849425
      24
 i =        4, time =        4.000, E =      -137.7317322382
  H        16.5507067862       21.8824021709       19.8411333588
  H        18.6363027645       20.2487189301       18.5953973516
  H        19.1670707647       18.8088455323       19.0450501074
  H        17.8427596211       17.0760557171       20.3645639502
  H        17.9314928997       18.4217733958       21.0960788842
  H        23.4647571083       22.0052470860       20.8480495616
  H        22.1705256869       21.4229128801       20.3020502547
  H        17.0289199578       20.1481702335       21.2322878828
  H        18.1589329556       20.3075745216       22.3081582408
  H        21.9843943499       20.8319040288       17.8393986620
  H        20.8091435890       20.3203018203       18.5357948889
  H        20.1030935717       19.0650041999       21.5664181533
  H        21.2159803260       20.3167022236       21.6640199933
  H        20.1642213532       23.0891701984       19.8072638743
  H        19.9048216761       22.3971455678       21.1856783834
  H        18.0704295906       21.8412813547       20.1256043214
  O        17.3650511016       21.3264293940       19.6797765862
  O        19.3261102181       19.5864640707       18.3940355120
  O        18.4143157695       17.8106752407       20.4151921519
  O        22.6545384950       21.4812293764       21.1558927760
  O        17.4055333646       19.6474145294       21.9755059130
  O        21.6161835555       20.8282123588       18.6878321563
  O        20.2519830101       20.0464870013       21.6623931725
  O        19.4496194293       22.8574750645       20.4663792580
      24
 i =        5, time =        5.000, E =      -137.7378776732
  H        16.5707717812       21.8816760613       19.8182544990
  H        18.6556227447       20.2622682716       18.6291801934
  H        19.1684714314       18.8201872351       19.0352365188
  H        17.8419068250       17.0573164689       20.3625365054
  H        17.9299780690       18.4033895496       21.0877469990
  H        23.4706126138       22.0158182548       20.8489488986
  H        22.1637182123       21.4294344272       20.2894014422
  H        17.0295324080       20.1738640858       21.2473005909
  H        18.1409883553       20.2558001402       22.2939672036
  H        21.9973075974       20.8209675099       17.8492850926
  H        20.7841913483       20.3049918906       18.5368720172
  H        20.1074811295       19.0849803169       21.5693973794
  H        21.2409575414       20.3200274788       21.6606705629
  H        20.1696018095       23.1106004048       19.8105303773
  H        19.9134536590       22.3925630980       21.1737006761
  H        18.0679043728       21.8649596406       20.1259783675
  O        17.3629356490       21.3274256963       19.6758562963
  O        19.3251951117       19.5800027173       18.3947074830
  O        18.4130601122       17.8112933580       20.4170129445
  O        22.6556383205       21.4792674291       21.1589387715
  O        17.4021198002       19.6442934702       21.9798662332
  O        21.6190844269       20.8290620165       18.6843783765
  O        20.2510431347       20.0469376607       21.6565817648
  O        19.4518337884       22.8657948335       20.4708176008
      24
 i =        6, time =        6.000, E =      -137.7419562148
  H        16.5895587870       21.8811926843       19.7925664414
  H        18.6729702789       20.2734522492       18.6641076188
  H        19.1672088366       18.8367943987       19.0235026628
  H        17.8336517224       17.0253145542       20.3579428104
  H        17.9324532248       18.3860899707       21.0773256585
  H        23.4628926942       22.0157650838       20.8582772974
  H        22.1586511144       21.4320793790       20.2752477805
  H        17.0294584899       20.2026885064       21.2565497048
  H        18.1181829296       20.1945069175       22.2762424232
  H        22.0272057107       20.8112173368       17.8284955061
  H        20.7514264718       20.2860805066       18.5411651314
  H        20.1173970292       19.1040404993       21.5706795401
  H        21.2515264220       20.3129042680       21.6577917042
  H        20.1668805754       23.1267745350       19.8213499129
  H        19.9280332555       22.3829892224       21.1663523015
  H        18.0702312346       21.8908091724       20.1238392894
  O        17.3605719147       21.3283689617       19.6721675330
  O        19.3244187503       19.5732646674       18.3954031287
  O        18.4122602093       17.8126071351       20.4190286553
  O        22.6575180759       21.4781124481       21.1614527693
  O        17.3990647543       19.6415241224       21.9847656829
  O        21.6213824566       20.8302340542       18.6827787068
  O        20.2507411054       20.0481854526       21.6510315879
  O        19.4541492696       22.8748132675       20.4745665152
      24
 i =        7, time =        7.000, E =      -137.7372543073
  H        16.5979789416       21.8865994533       19.7649990252
  H        18.6905246284       20.2801569057       18.6984506120
  H        19.1624570826       18.8500785534       19.0164045620
  H        17.8276121982       16.9935377960       20.3521318748
  H        17.9349107177       18.3733901225       21.0692617543
  H        23.4442621878       22.0066791956       20.8749919593
  H        22.1584059641       21.4308516591       20.2645419475
  H        17.0303465184       20.2306771803       21.2639636029
  H        18.1097178442       20.1390155675       22.2639677215
  H        22.0653005948       20.8018796997       17.7940923294
  H        20.7218412173       20.2697340668       18.5487228955
  H        20.1310372541       19.1123304998       21.5695290545
  H        21.2450039385       20.2956233874       21.6553424936
  H        20.1576911831       23.1385044543       19.8375479910
  H        19.9464345960       22.3698779610       21.1614387835
  H        18.0735916997       21.9149150483       20.1164689582
  O        17.3588117708       21.3291534655       19.6688351792
  O        19.3237316273       19.5669581831       18.3958301440
  O        18.4115357293       17.8135383489       20.4208727123
  O        22.6598191108       21.4776538409       21.1631814192
  O        17.3950601695       19.6384394724       21.9894400023
  O        21.6229226860       20.8313671517       18.6819793689
  O        20.2513566992       20.0508303865       21.6457864430
  O        19.4565615931       22.8842461455       20.4778577935
      24
 i =        8, time =        8.000, E =      -137.7355120228
  H        16.5921642638       21.9003790278       19.7356152902
  H        18.7096046411       20.2811266842       18.7304133474
  H        19.1535391718       18.8523129204       19.0196435285
  H        17.8307228334       16.9727015888       20.3464353488
  H        17.9334225166       18.3682709493       21.0676404343
  H        23.4228436277       21.9939436859       20.8960842552
  H        22.1647691286       21.4256779811       20.2602468214
  H        17.0340456635       20.2541314578       21.2733812813
  H        18.1345796010       20.1023017870       22.2648593720
  H        22.1002547334       20.7927465054       17.7667834261
  H        20.7027016398       20.2596227718       18.5586569560
  H        20.1469424528       19.1056633473       21.5657151917
  H        21.2248287746       20.2705741911       21.6533428718
  H        20.1467878180       23.1479066211       19.8540241662
  H        19.9650009103       22.3562531816       21.1549743710
  H        18.0750843956       21.9343830833       20.1022069595
  O        17.3581195469       21.3298035568       19.6659851083
  O        19.3231257841       19.5616816283       18.3957621545
  O        18.4106727752       17.8132217878       20.4222046994
  O        22.6619234729       21.4775521879       21.1641192950
  O        17.3888169986       19.6344966000       21.9932179037
  O        21.6239427073       20.8322162075       18.6807447865
  O        20.2527503736       20.0549789128       21.6408525018
  O        19.4589891996       22.8936853506       20.4812587197
      24
 i =        9, time =        9.000, E =      -137.7391450067
  H        16.5765403763       21.9193447234       19.7037483515
  H        18.7302399042       20.2765295353       18.7586522909
  H        19.1408268933       18.8417021751       19.0338356840
  H        17.8454920319       16.9676255728       20.3416956174
  H        17.9261896872       18.3714060101       21.0737026059
  H        23.4105577465       21.9857026595       20.9173377880
  H        22.1780218476       21.4165505794       20.2629499240
  H        17.0418543277       20.2710689892       21.2870007150
  H        18.1897465787       20.0812280501       22.2771748936
  H        22.1243111237       20.7838505041       17.7591212480
  H        20.6977493651       20.2572336898       18.5696501894
  H        20.1642680581       19.0888433307       21.5596285007
  H        21.2008079327       20.2419302670       21.6519771618
  H        20.1402208780       23.1577246709       19.8645595869
  H        19.9803003874       22.3450666771       21.1435909126
  H        18.0731933446       21.9478969131       20.0807778391
  O        17.3583393883       21.3305994665       19.6637114789
  O        19.3225951901       19.5575617757       18.3952657236
  O        18.4096101853       17.8113155465       20.4228936605
  O        22.6630661403       21.4772952470       21.1644909004
  O        17.3804845491       19.6300479836       21.9961149359
  O        21.6246844988       20.8326574146       18.6783642519
  O        20.2543334157       20.0600521318       21.6361915683
  O        19.4612758766       22.9027622477       20.4853930517
      24
 i =       10, time =       10.000, E =      -137.7420428106
  H        16.5601665516       21.9370009640       19.6690013745
  H        18.7512865258       20.2679505864       18.7825970752
  H        19.1260313881       18.8232414013       19.0537106259
  H        17.8702643947       16.9769356270       20.3380734105
  H        17.9144256212       18.3805003452       21.0848613630
  H        23.4166926772       21.9884598175       20.9356809863
  H        22.1970403522       21.4036146178       20.2707913528
  H        17.0540946427       20.2816745825       21.3048084385
  H        18.2527650793       20.0625041188       22.2921190931
  H        22.1341123429       20.7751445709       17.7750621316
  H        20.7080889513       20.2625629681       18.5803121822
  H        20.1821754419       19.0716276316       21.5519163689
  H        21.1872605399       20.2146622734       21.6516678518
  H        20.1417441057       23.1698958460       19.8651870704
  H        19.9903660597       22.3379584045       21.1259363930
  H        18.0679047679       21.9557883927       20.0531739481
  O        17.3589121742       21.3319272361       19.6620144672
  O        19.3221073318       19.5541924405       18.3947248562
  O        18.4083679690       17.8080641452       20.4230929155
  O        22.6627309335       21.4764679235       21.1646102268
  O        17.3714923015       19.6259283820       21.9986951492
  O        21.6252938839       20.8326705914       18.6746607426
  O        20.2552298458       20.0651025047       21.6317384366
  O        19.4633319768       22.9113019733       20.4906233025
      24
 i =       11, time =       11.000, E =      -137.7431916089
  H        16.5511024499       21.9475848792       19.6317952763
  H        18.7708658241       20.2579721275       18.8025306589
  H        19.1113696341       18.8043892877       19.0718796014
  H        17.8995036986       16.9929779785       20.3349657714
  H        17.9011564516       18.3916121404       21.0963681249
  H        23.4396592352       22.0013761617       20.9515316725
  H        22.2195866120       21.3871593408       20.2795598960
  H        17.0700061382       20.2881051320       21.3246910188
  H        18.3032652275       20.0366395456       22.3022704944
  H        22.1305115910       20.7663007670       17.8111496303
  H        20.7324659487       20.2743689323       18.5893864934
  H        20.1993799495       19.0624989527       21.5430647628
  H        21.1950690995       20.1925230433       21.6529941316
  H        20.1498576930       23.1843003129       19.8569614980
  H        19.9951894763       22.3346586998       21.1029980536
  H        18.0607728959       21.9599534836       20.0213986399
  O        17.3592272051       21.3340301789       19.6607816950
  O        19.3216327036       19.5509307307       18.3945988569
  O        18.4071016807       17.8042236103       20.4231432254
  O        22.6611534823       21.4751112623       21.1647247766
  O        17.3631907726       19.6225888618       22.0015389018
  O        21.6258136985       20.8323397993       18.6699074968
  O        20.2548110721       20.0693368268       21.6274185183
  O        19.4652781142       22.9193926949       20.4968350164
      24
 i =       12, time =       12.000, E =      -137.7402478736
  H        16.5535162852       21.9481758365       19.5930500114
  H        18.7870320706       20.2494136975       18.8192804106
  H        19.0986717549       18.7910231499       19.0824587216
  H        17.9247655983       17.0029350447       20.3311133990
  H        17.8893528725       18.4009278688       21.1037104761
  H        23.4681921657       22.0170444344       20.9676455129
  H        22.2429939799       21.3675228672       20.2835985941
  H        17.0880459947       20.2938399206       21.3431467481
  H        18.3301334728       20.0002012575       22.3039705799
  H        22.1194543588       20.7564463200       17.8558503440
  H        20.7666929479       20.2898507337       18.5958856063
  H        20.2143189418       19.0655516654       21.5332280024
  H        21.2220383240       20.1767301197       21.6563632722
  H        20.1589058306       23.1990811596       19.8450491437
  H        19.9966563062       22.3329114930       21.0777408565
  H        18.0547039417       21.9635127130       19.9880219454
  O        17.3588239092       21.3368974897       19.6598318317
  O        19.3211671901       19.5472044331       18.3952136951
  O        18.4061525361       17.8008746984       20.4234175997
  O        22.6592058567       21.4736787918       21.1650261586
  O        17.3563867265       19.6200127386       22.0050689297
  O        21.6261612648       20.8318913237       18.6648660989
  O        20.2532947618       20.0724012739       21.6231741309
  O        19.4673702767       22.9273502787       20.5035085232
      24
 i =       13, time =       13.000, E =      -137.7364528743
  H        16.5670038709       21.9391701379       19.5536067202
  H        18.7985259516       20.2443439120       18.8335769659
  H        19.0890651954       18.7860984888       19.0822886365
  H        17.9386994850       16.9950936415       20.3253237806
  H        17.8808486250       18.4056180115       21.1039031604
  H        23.4902099639       22.0275078122       20.9862963171
  H        22.2653857517       21.3450771811       20.2782350760
  H        17.1065813602       20.3023334059       21.3567186368
  H        18.3296515336       19.9534679462       22.2965029606
  H        22.1126131925       20.7438343023       17.8895259456
  H        20.8026449097       20.3039798338       18.5991505609
  H        20.2255360507       19.0800219449       21.5222116633
  H        21.2549864030       20.1670101312       21.6617469510
  H        20.1628533735       23.2120980124       19.8352815464
  H        19.9978312589       22.3291091417       21.0540895418
  H        18.0530187930       21.9698583181       19.9554463986
  O        17.3575016930       21.3402940945       19.6589948946
  O        19.3207121460       19.5426688407       18.3967224309
  O        18.4058582383       17.7989616502       20.4241939444
  O        22.6577608340       21.4726565767       21.1656723826
  O        17.3514094474       19.6179664080       22.0095300930
  O        21.6261453453       20.8317546546       18.6607903974
  O        20.2515927058       20.0743525291       21.6189832822
  O        19.4697999959       22.9355633013       20.5100049575
      24
 i =       14, time =       14.000, E =      -137.7401877233
  H        16.5866925510       21.9242085099       19.5136382097
  H        18.8052710223       20.2432931289       18.8454346584
  H        19.0829358246       18.7896095560       19.0709735074
  H        17.9408607372       16.9689928527       20.3177722158
  H        17.8760702258       18.4040001891       21.0957702751
  H        23.4984080957       22.0280058226       21.0082232328
  H        22.2867859113       21.3204550090       20.2627485661
  H        17.1246347602       20.3151563260       21.3638024078
  H        18.3040425828       19.8989381170       22.2814425007
  H        22.1219356590       20.7263006609       17.8939366500
  H        20.8287411219       20.3096004257       18.5987872995
  H        20.2319441043       19.1007540032       21.5094714098
  H        21.2800574796       20.1630027903       21.6687562587
  H        20.1580639382       23.2220742694       19.8314685754
  H        20.0013911890       22.3199507215       21.0351706842
  H        18.0577534052       21.9810803917       19.9251520258
  O        17.3554274973       21.3438632367       19.6582001485
  O        19.3202503210       19.5372702813       18.3991440299
  O        18.4062043253       17.7986265548       20.4255519464
  O        22.6572695184       21.4723113657       21.1666674001
  O        17.3481565670       19.6162210822       22.0149226540
  O        21.6257684410       20.8325239327       18.6588439717
  O        20.2506469096       20.0755423864       21.6148577493
  O        19.4726151881       22.9443190403       20.5158687850
      24
 i =       15, time =       15.000, E =      -137.7468479231
  H        16.6043876302       21.9093820102       19.4721625611
  H        18.8082655795       20.2452063750       18.8540158224
  H        19.0798231288       18.7985575464       19.0509046673
  H        17.9375285809       16.9362465036       20.3102817402
  H        17.8740550636       18.3956696611       21.0799353015
  H        23.4914229752       22.0177215977       21.0329155859
  H        22.3089548093       21.2947668693       20.2410774400
  H        17.1421281254       20.3309198822       21.3655765857
  H        18.2630091725       19.8409947841       22.2627747289
  H        22.1473296106       20.7035195229       17.8705110298
  H        20.8353619067       20.3005037933       18.5945983403
  H        20.2329161486       19.1195497444       21.4941383345
  H        21.2885983726       20.1645569062       21.6768595087
  H        20.1442670916       23.2290294860       19.8343089466
  H        20.0078454144       22.3045523959       21.0216151790
  H        18.0682317511       21.9967608351       19.8973894199
  O        17.3531612119       21.3472462897       19.6575243020
  O        19.3197591266       19.5312597646       18.4023726870
  O        18.4068363285       17.7991433328       20.4273521923
  O        22.6576995657       21.4726279898       21.1677981226
  O        17.3459846778       19.6146378925       22.0209298063
  O        21.6256598292       20.8346190057       18.6589567128
  O        20.2510545865       20.0765115556       21.6108579273
  O        19.4757737058       22.9536606308       20.5210154689
      24
 i =       16, time =       16.000, E =      -137.7457000135
  H        16.6123097305       21.9005358662       19.4273957744
  H        18.8089328725       20.2481613595       18.8580960928
  H        19.0782313446       18.8068799932       19.0273150374
  H        17.9358344547       16.9106038330       20.3050629295
  H        17.8724654979       18.3818336663       21.0588463055
  H        23.4738243886       21.9997507606       21.0590544881
  H        22.3340325805       21.2694589377       20.2194877405
  H        17.1595194576       20.3460994429       21.3652145091
  H        18.2267583092       19.7856230598       22.2471115084
  H        22.1767806859       20.6780300653       17.8382926980
  H        20.8229016924       20.2766998817       18.5868702791
  H        20.2282836640       19.1285644923       21.4752661701
  H        21.2779676799       20.1715438919       21.6855924138
  H        20.1245454486       23.2342987024       19.8412067414
  H        20.0151153096       22.2852341823       21.0114238787
  H        18.0812536608       22.0143206375       19.8716522977
  O        17.3514116312       21.3502308780       19.6571408138
  O        19.3192601498       19.5251559573       18.4061449339
  O        18.4074332889       17.7995310942       20.4293121401
  O        22.6586196308       21.4733194292       21.1687525641
  O        17.3435519825       19.6131209538       22.0269425795
  O        21.6265615746       20.8378844593       18.6599275376
  O        20.2530105059       20.0777819448       21.6070317832
  O        19.4791832823       22.9633349970       20.5257446633
      24
 i =       17, time =       17.000, E =      -137.7417885427
  H        16.6086821353       21.8991838662       19.3784162093
  H        18.8083970379       20.2502962648       18.8567686759
  H        19.0757794371       18.8065617225       19.0072905395
  H        17.9401073766       16.9007811714       20.3035732257
  H        17.8677249225       18.3655351689       21.0365994267
  H        23.4557822494       21.9808013803       21.0849248746
  H        22.3633391471       21.2459526328       20.2036429330
  H        17.1773657420       20.3570226471       21.3661754002
  H        18.2209469807       19.7379040644       22.2415793485
  H        22.1984357285       20.6532390077       17.8154130807
  H        20.8014326391       20.2449129465       18.5767174486
  H        20.2184046425       19.1252179786       21.4524165453
  H        21.2513486136       20.1837495842       21.6947799635
  H        20.1045017851       23.2402024914       19.8468955995
  H        20.0199342921       22.2661816467       21.0014685660
  H        18.0926886283       22.0305600727       19.8474539838
  O        17.3505821671       21.3529240652       19.6571625298
  O        19.3188535840       19.5196141946       18.4100622146
  O        18.4079354780       17.7990098397       20.4310902801
  O        22.6592927095       21.4738709323       21.1692782647
  O        17.3391713761       19.6116339123       22.0322940964
  O        21.6285874075       20.8416773365       18.6605602594
  O        20.2563077873       20.0795472021       21.6033769559
  O        19.4826822945       22.9728934831       20.5305794026
      24
 i =       18, time =       18.000, E =      -137.7434293489
  H        16.5993291796       21.9013675705       19.3269018819
  H        18.8070589013       20.2504409473       18.8499610412
  H        19.0703366474       18.7915499417       18.9964231242
  H        17.9513758223       16.9087656557       20.3061040868
  H        17.8558290526       18.3510062357       21.0178806346
  H        23.4498255508       21.9689618463       21.1091551043
  H        22.3969978288       21.2253439639       20.1969576979
  H        17.1961156163       20.3615255570       21.3707903338
  H        18.2531007465       19.6979967359       22.2477751794
  H        22.2060282637       20.6317962296       17.8116257590
  H        20.7823341324       20.2134923192       18.5658081302
  H        20.2044176302       19.1142525911       21.4261745375
  H        21.2180535904       20.2009922740       21.7048148069
  H        20.0899525241       23.2490765949       19.8456723708
  H        20.0196632414       22.2513352560       20.9891290996
  H        18.0990844985       22.0430154141       19.8247128280
  O        17.3505572064       21.3557319447       19.6575053966
  O        19.3186745681       19.5151312018       18.4137697229
  O        18.4085281329       17.7971601706       20.4323812080
  O        22.6589002362       21.4737021073       21.1692429810
  O        17.3323186631       19.6103469746       22.0367295940
  O        21.6314084459       20.8452876935       18.6601427303
  O        20.2603030139       20.0815288559       21.5997916137
  O        19.4860774955       22.9818912683       20.5360107975
      24
 i =       19, time =       19.000, E =      -137.7460439387
  H        16.5930134470       21.9010701121       19.2765100137
  H        18.8045273500       20.2483402810       18.8385762739
  H        19.0616605922       18.7626880400       18.9949498362
  H        17.9675732127       16.9297008210       20.3117006062
  H        17.8343184457       18.3416963284       21.0057497842
  H        23.4623841753       21.9682448130       21.1315571463
  H        22.4341362473       21.2082015052       20.2000942717
  H        17.2159747737       20.3596761214       21.3795388166
  H        18.3025100164       19.6630229294       22.2602516872