       3
 i =        1, time =        1.000, E =       -17.2038989040
  H        19.7117593559       20.5099480200       19.4996825735
  H        19.8720691159       19.4568918748       20.5024481086
  O        20.3187601069       19.7681621237       19.6802598234
       3
 i =        2, time =        2.000, E =       -17.2023460038
  H        19.7466925744       20.4886819829       19.5011797030
  H        19.9058537336       19.4458102418       20.4973825209
  O        20.3143878793       19.7702315329       19.6804763355
       3
 i =        3, time =        3.000, E =       -17.2008594757
  H        19.7676422293       20.4880176244       19.4948733965
  H        19.9397547574       19.4306469743       20.4967170179
  O        20.3108720417       19.7712731896       19.6809053083
       3
 i =        4, time =        4.000, E =       -17.2030989916
  H        19.7687238875       20.5144493672       19.4806296133
  H        19.9707571812       19.4113489809       20.5040340285
  O        20.3087913813       19.7708666780       19.6813334720
       3
 i =        5, time =        5.000, E =       -17.2038708378
  H        19.7580239873       20.5553659857       19.4638637032
  H        19.9976013948       19.3902068672       20.5184234104
  O        20.3077257328       19.7696505404       19.6814787987
       3
 i =        6, time =        6.000, E =       -17.2012187693
  H        19.7474508823       20.5920488137       19.4517440541
  H        20.0205427533       19.3713052269       20.5350794338
  O        20.3069121242       19.7685456501       19.6811905765
       3
 i =        7, time =        7.000, E =       -17.1987181661
  H        19.7445839916       20.6118069006       19.4492767544
  H        20.0403347458       19.3588105810       20.5482647543
  O        20.3058228576       19.7680967113       19.6805112791
       3
 i =        8, time =        8.000, E =       -17.1991531274
  H        19.7519505802       20.6098521270       19.4585353183
  H        20.0574668980       19.3555093108       20.5539890804
  O        20.3042605901       19.7684416388       19.6795586296
       3
 i =        9, time =        9.000, E =       -17.2017068983
  H        19.7678693863       20.5884693661       19.4789722608
  H        20.0719556029       19.3621016940       20.5513233348
  O        20.3023226297       19.7694044489       19.6784215597
       3
 i =       10, time =       10.000, E =       -17.2027026932
  H        19.7862908841       20.5574102509       19.5075706353
  H        20.0834240173       19.3769866773       20.5428127111
  O        20.3004105342       19.7704801599       19.6771251638
       3
 i =       11, time =       11.000, E =       -17.2008738598
  H        19.7968605763       20.5337117816       19.5394271198
  H        20.0912831546       19.3964868121       20.5341910618
  O        20.2992187283       19.7708277761       19.6756124489
       3
 i =       12, time =       12.000, E =       -17.2011456894
  H        19.7898379089       20.5337503302       19.5702881828
  H        20.0950578149       19.4159863496       20.5325858429
  O        20.2994036597       19.7696954542       19.6736994925
       3
 i =       13, time =       13.000, E =       -17.2040177406
  H        19.7660121448       20.5577094741       19.5993106938
  H        20.0949679615       19.4321555675       20.5425334275
  O        20.3009163456       19.7672645738       19.6711521772
       3
 i =       14, time =       14.000, E =       -17.2042931692
  H        19.7367022314       20.5897809607       19.6274425815
  H        20.0924697449       19.4446230649       20.5622578588
  O        20.3029594079       19.7645468066       19.6680196058
       3
 i =       15, time =       15.000, E =       -17.2017706095
  H        19.7135863460       20.6136608152       19.6546874255
  H        20.0900164540       19.4551658469       20.5845863320
  O        20.3046367488       19.7624602348       19.6647517066
       3
 i =       16, time =       16.000, E =       -17.1997675383
  H        19.7035012048       20.6202134182       19.6798622035
  H        20.0901301284       19.4655974257       20.6014945956
  O        20.3053437795       19.7614749111       19.6619299748
       3
 i =       17, time =       17.000, E =       -17.2002747625
  H        19.7084335984       20.6074027558       19.7012504979
  H        20.0946623384       19.4764623022       20.6077481682
  O        20.3048202184       19.7616980550       19.6599955384
       3
 i =       18, time =       18.000, E =       -17.2020912814
  H        19.7260287980       20.5794369536       19.7171437735
  H        20.1045446210       19.4867396864       20.6023376600
  O        20.3031377981       19.7629424730       19.6591251468
       3
 i =       19, time =       19.000, E =       -17.2020057372
  H        19.7492946591       20.5470894748       19.7263332448
  H        20.1198063357       19.4940117884       20.5886645683
  O        20.3007235441       19.7646918285       19.6591873241
       3
 i =       20, time =       20.000, E =       -17.1998472208
  H        19.7671496680       20.5267484057       19.7286335292
  H        20.1397058226       19.4950396549       20.5737601362
  O        20.2983225985       19.7661185780       19.6597556672
       3
 i =       21, time =       21.000, E =       -17.2004593324
  H        19.7699792494       20.5323200340       19.7248801663
  H        20.1630336076       19.4870928270       20.5655937610
  O        20.2966256369       19.7665065283       19.6602762292
       3
 i =       22, time =       22.000, E =       -17.2036457631
  H        19.7585708282       20.5620825542       19.7162045829
  H        20.1885905266       19.4698394847       20.5684087223
  O        20.2956701206       19.7659671421       19.6604076052
       3
 i =       23, time =       23.000, E =       -17.2043348714
  H        19.7429481558       20.6000120321       19.7040792080
  H        20.2154552091       19.4462753237       20.5796009108
  O        20.2948887125       19.7653107765       19.6602169572
       3
 i =       24, time =       24.000, E =       -17.2023197008
  H        19.7330871471       20.6295820249       19.6906503552
  H        20.2427496040       19.4215202843       20.5917657694
  O        20.2937044618       19.7652556765       19.6600316552
       3
 i =       25, time =       25.000, E =       -17.2008124616
  H        19.7344198090       20.6410761924       19.6782728978
  H        20.2693898704       19.4006481992       20.5974650155
  O        20.2918330669       19.7661045717       19.6601689608
       3
 i =       26, time =       26.000, E =       -17.2016043739
  H        19.7478182128       20.6320862477       19.6689811734
  H        20.2942013877       19.3871858955       20.5924302481
  O        20.2892845348       19.7678040565       19.6607674570
       3
 i =       27, time =       27.000, E =       -17.2031546737
  H        19.7700027487       20.6071429849       19.6642361629
  H        20.3162101214       19.3824553782       20.5766357325
  O        20.2863233243       19.7700011185       19.6617345816
       3
 i =       28, time =       28.000, E =       -17.2022681515
  H        19.7933663834       20.5782478054       19.6648089645
  H        20.3349557816       19.3853209603       20.5544450800
  O        20.2834599758       19.7720220626       19.6627436200
       3
 i =       29, time =       29.000, E =       -17.1997676224
  H        19.8073477083       20.5628739798       19.6708595099
  H        20.3507362934       19.3923675146       20.5340567088
  O        20.2813504897       19.7729798331       19.6632618457
       3
 i =       30, time =       30.000, E =       -17.2004419882
  H        19.8050653559       20.5729576400       19.6823506102
  H        20.3644885229       19.3992812583       20.5249204221
  O        20.2803849875       19.7723755934       19.6626865984
       3
 i =       31, time =       31.000, E =       -17.2029636938
  H        19.7903674005       20.6025982071       19.6991860735
  H        20.3770573701       19.4037056415       20.5322179499
  O        20.2802824281       19.7707067450       19.6606835940
       3
 i =       32, time =       32.000, E =       -17.2032665205
  H        19.7736112667       20.6346334093       19.7206845892
  H        20.3884009772       19.4071461227       20.5524905536
  O        20.2803990815       19.7689431576       19.6574970255
       3
 i =       33, time =       33.000, E =       -17.2018344926
  H        19.7634496742       20.6545743323       19.7453888903
  H        20.3977247776       19.4133439905       20.5761089498
  O        20.2802361991       19.7677585447       19.6538127959
       3
 i =       34, time =       34.000, E =       -17.2013517284
  H        19.7641112962       20.6554100298       19.7713790763
  H        20.4042962509       19.4252837665       20.5933799900
  O        20.2795637561       19.7674133392       19.6503589096
       3
 i =       35, time =       35.000, E =       -17.2028119565
  H        19.7757343507       20.6371130003       19.7966837360
  H        20.4080530653       19.4436741445       20.5983710006
  O        20.2783670849       19.7678763186       19.6476376799
       3
 i =       36, time =       36.000, E =       -17.2042421427
  H        19.7946762554       20.6061555072       19.8197843255
  H        20.4098563852       19.4667495886       20.5901136283
  O        20.2768160505       19.7688625167       19.6458163232
       3
 i =       37, time =       37.000, E =       -17.2029924065
  H        19.8136450042       20.5753382166       19.8402288132
  H        20.4115780246       19.4905291059       20.5728195486
  O        20.2752540328       19.7698252012       19.6446702915
       3
 i =       38, time =       38.000, E =       -17.2005325057
  H        19.8237702638       20.5602142352       19.8587267770
  H        20.4159271592       19.5095958550       20.5551364464
  O        20.2740787245       19.7701226803       19.6436180966
       3
 i =       39, time =       39.000, E =       -17.2007335570
  H        19.8204109306       20.5688786711       19.8754836739
  H        20.4256231910       19.5190326706       20.5466447696
  O        20.2734244934       19.7695380313       19.6420443527
       3
 i =       40, time =       40.000, E =       -17.2024350599
  H        19.8072758871       20.5946663441       19.8883636776
  H        20.4419149127       19.5170227151       20.5514161673
  O        20.2729894990       19.7685848378       19.6398257723
       3
 i =       41, time =       41.000, E =       -17.2025322985
  H        19.7924985939       20.6230220076       19.8943356454
  H        20.4636538854       19.5057732895       20.5645042704
  O        20.2723376817       19.7680292301       19.6374682870
       3
 i =       42, time =       42.000, E =       -17.2014057147
  H        19.7829533331       20.6416317026       19.8917593520
  H        20.4880019827       19.4897585813       20.5760081815
  O        20.2712140291       19.7683664652       19.6357103821
       3
 i =       43, time =       43.000, E =       -17.2013361385
  H        19.7821829987       20.6441858955       19.8808954261
  H        20.5118943544       19.4733911632       20.5773062519
  O        20.2695865795       19.7697318814       19.6350955047
       3
 i =       44, time =       44.000, E =       -17.2030452078
  H        19.7903083874       20.6305441011       19.8635924130
  H        20.5330711730       19.4597487066       20.5641740389
  O        20.2675895267       19.7719632643       19.6357902210
       3
 i =       45, time =       45.000, E =       -17.2045353859
  H        19.8040092577       20.6067886534       19.8430731786
  H        20.5506238243       19.4501176898       20.5374190679
  O        20.2654927678       19.7746227992       19.6375533251
       3
 i =       46, time =       46.000, E =       -17.2035072141
  H        19.8166497609       20.5850583182       19.8236489837
  H        20.5653567881       19.4437857354       20.5027943268
  O        20.2636719154       19.7770089746       19.6397555546
       3
 i =       47, time =       47.000, E =       -17.2015964299
  H        19.8206302168       20.5793630523       19.8095451399
  H        20.5798600519       19.4381737056       20.4701541379
  O        20.2624543567       19.7784011744       19.6415055069
       3
 i =       48, time =       48.000, E =       -17.2018295296
  H        19.8132288079       20.5950572607       19.8028225964
  H        20.5974615172       19.4302039958       20.4499220659
  O        20.2618139053       19.7786397304       19.6420021380
       3
 i =       49, time =       49.000, E =       -17.2027537545
  H        19.7996379650       20.6232746259       19.8028177392
  H        20.6195708892       19.4191685525       20.4466635528
  O        20.2613423493       19.7783102743       19.6409803928
       3
 i =       50, time =       50.000, E =       -17.2021030926
  H        19.7881503673       20.6494549863       19.8078637428
  H        20.6437759548       19.4083302603       20.4557385135
  O        20.2606714564       19.7781168716       19.6388224223
       3
 i =       51, time =       51.000, E =       -17.2007740607
  H        19.7848455466       20.6628535883       19.8165824388
  H        20.6653844177       19.4028233819       20.4676035253
  O        20.2597133416       19.7784176573       19.6362101547
       3
 i =       52, time =       52.000, E =       -17.2008966480
  H        19.7920765726       20.6592369405       19.8280991347
  H        20.6803016912       19.4065651790       20.4739224602
  O        20.2585762246       19.7792446090       19.6337268014
       3
 i =       53, time =       53.000, E =       -17.2027289120
  H        19.8086494734       20.6406225760       19.8420645905
  H        20.6866337892       19.4208201679       20.4703916500
  O        20.2574531858       19.7804039026       19.6316733836
       3
 i =       54, time =       54.000, E =       -17.2041653028
  H        19.8301051657       20.6149147692       19.8588602462
  H        20.6852233119       19.4439717844       20.4573534077
  O        20.2565729587       19.7815096402       19.6300121733
       3
 i =       55, time =       55.000, E =       -17.2035735478
  H        19.8496213965       20.5944124900       19.8796795792
  H        20.6798307537       19.4717153868       20.4398859373
  O        20.2561328228       19.7820586265       19.6283513673
       3
 i =       56, time =       56.000, E =       -17.2025966996
  H        19.8611209247       20.5899653196       19.9054799216
  H        20.6765569512       19.4979949852       20.4267985338
  O        20.2561375229       19.7817393042       19.6260724378
       3
 i =       57, time =       57.000, E =       -17.2030493463
  H        19.8634975133       20.6026069489       19.9346830191
  H        20.6812109854       19.5174896490       20.4262314065
  O        20.2562946164       19.7808044612       19.6227546391
       3
 i =       58, time =       58.000, E =       -17.2034797612
  H        19.8607234439       20.6231457837       19.9626850654
  H        20.6953140075       19.5285030880       20.4388939526
  O        20.2562551559       19.7799255060       19.6186372203
       3
 i =       59, time =       59.000, E =       -17.2023245559
  H        19.8579137554       20.6401609334       19.9843445633
  H        20.7151875793       19.5329878550       20.4568201583
  O        20.2559189614       19.7796954590       19.6145472674
       3
 i =       60, time =       60.000, E =       -17.2007903978
  H        19.8584824923       20.6459929637       19.9962022661
  H        20.7352340258       19.5340104096       20.4694808159
  O        20.2554116064       19.7804112359       19.6113785597
       3
 i =       61, time =       61.000, E =       -17.2008181407
  H        19.8634493374       20.6382306515       19.9971098390
  H        20.7511296418       19.5338289497       20.4693284134
  O        20.2549330960       19.7820977487       19.6096999823
       3
 i =       62, time =       62.000, E =       -17.2023828392
  H        19.8714610572       20.6196660849       19.9882678251
  H        20.7610499372       19.5333382428       20.4536029118
  O        20.2546827982       19.7845411605       19.6096346814
       3
 i =       63, time =       63.000, E =       -17.2034941581
  H        19.8788790274       20.5981128677       19.9732207328
  H        20.7659570776       19.5320563756       20.4244384086
  O        20.2548367614       19.7872954988       19.6108482864
       3
 i =       64, time =       64.000, E =       -17.2030319645
  H        19.8805699834       20.5847221604       19.9571934935
  H        20.7696782973       19.5282312355       20.3886373707
  O        20.2554923359       19.7897785180       19.6126004087
       3
 i =       65, time =       65.000, E =       -17.2027242183
  H        19.8726898208       20.5881510508       19.9446936615
  H        20.7781573285       19.5193828176       20.3561967977
  O        20.2565357246       19.7916019167       19.6139848203
       3
 i =       66, time =       66.000, E =       -17.2037398610
  H        19.8563447400       20.6072735911       19.9367086374
  H        20.7964032907       19.5039777762       20.3356107243
  O        20.2575954496       19.7929297022       19.6143996086
       3
 i =       67, time =       67.000, E =       -17.2042446859
  H        19.8374591535       20.6318927836       19.9312371984
  H        20.8240540010       19.4836971010       20.3279724136
  O        20.2583255050       19.7942981495       19.6138948795
       3
 i =       68, time =       68.000, E =       -17.2029451999
  H        19.8227846355       20.6506600244       19.9261176520
  H        20.8548261881       19.4635144370       20.3269156472
  O        20.2586942173       19.7961156943       19.6130063032
       3
 i =       69, time =       69.000, E =       -17.2013469621
  H        19.8168224357       20.6565895358       19.9205280865
  H        20.8808462209       19.4490416564       20.3244286725
  O        20.2589110729       19.7984801025       19.6122970045
       3
 i =       70, time =       70.000, E =       -17.2012866937
  H        19.8209407022       20.6483213568       19.9150822169
  H        20.8965454435       19.4441562858       20.3152849119
  O        20.2592402494       19.8012428620       19.6120704772
       3
 i =       71, time =       71.000, E =       -17.2024495524
  H        19.8333561503       20.6299536801       19.9116684908
  H        20.9001579482       19.4501149763       20.2982418883
  O        20.2599098508       19.8040708128       19.6123008249
       3
 i =       72, time =       72.000, E =       -17.2029249161
  H        19.8494611690       20.6103695595       19.9132706731
  H        20.8941687763       19.4653406904       20.2760992476
  O        20.2610612936       19.8064978161       19.6126350269
       3
 i =       73, time =       73.000, E =       -17.2021885186
  H        19.8634210245       20.6002762001       19.9231125701
  H        20.8854180614       19.4855297813       20.2555370982
  O        20.2626373133       19.8081039156       19.6124520835
       3
 i =       74, time =       74.000, E =       -17.2022059224
  H        19.8717295994       20.6055513820       19.9424926111
  H        20.8833575227       19.5049574124       20.2453256916
  O        20.2642619467       19.8088565249       19.6111118510
       3
 i =       75, time =       75.000, E =       -17.2037811101
  H        19.8757446115       20.6223704865       19.9689467219
  H        20.8943810423       19.5198016271       20.2508675755
  O        20.2654337864       19.8092172694       19.6084185359
       3
 i =       76, time =       76.000, E =       -17.2046097466
  H        19.8797551195       20.6408382828       19.9973764255
  H        20.9162148482       19.5307361606       20.2688506258
  O        20.2660045136       19.8097560689       19.6048910991
       3
 i =       77, time =       77.000, E =       -17.2034995959
  H        19.8874621518       20.6519174191       20.0227297926
  H        20.9402306835       19.5411201759       20.2896426646
  O        20.2662646891       19.8108284558       19.6014475886
       3
 i =       78, time =       78.000, E =       -17.2022054949
  H        19.9003243091       20.6508952393       20.0415967852
  H        20.9580599839       19.5536625136       20.3038655135
  O        20.2666373147       19.8125630621       19.5988967251
       3
 i =       79, time =       79.000, E =       -17.2023037090
  H        19.9174115580       20.6379282420       20.0527164908
  H        20.9651461722       19.5690661941       20.3059056261
  O        20.2674633519       19.8149084442       19.5976799428
       3
 i =       80, time =       80.000, E =       -17.2031460109
  H        19.9356528184       20.6177935105       20.0571754544
  H        20.9614101968       19.5860773717       20.2945346683
  O        20.2689411229       19.8176404670       19.5978243054
       3
 i =       81, time =       81.000, E =       -17.2029537870
  H        19.9503515678       20.5990257235       20.0582734553
  H        20.9512472599       19.6018115328       20.2728821324
  O        20.2710901210       19.8203926142       19.5989448574
       3
 i =       82, time =       82.000, E =       -17.2017123210
  H        19.9566757228       20.5908707048       20.0601718058
  H        20.9431158517       19.6123001107       20.2480964873
  O        20.2736789771       19.8228131791       19.6003425467
       3
 i =       83, time =       83.000, E =       -17.2017013844
  H        19.9523380286       20.5976172712       20.0649812556
  H        20.9468382719       19.6138581160       20.2289479215
  O        20.2762233983       19.8248405734       19.6013349077
       3
 i =       84, time =       84.000, E =       -17.2034551426
  H        19.9393891717       20.6151552578       20.0709508270
  H        20.9672686997       19.6054060252       20.2201414484
  O        20.2782720092       19.8267827730       19.6017293139
       3
 i =       85, time =       85.000, E =       -17.2043628044
  H        19.9229075176       20.6343100772       20.0742836091
  H        20.9996339829       19.5898164300       20.2184329930
  O        20.2797870948       19.8290277562       19.6019604383
       3
 i =       86, time =       86.000, E =       -17.2034275680
  H        19.9081525383       20.6466879580       20.0720545660
  H        21.0332397619       19.5723283660       20.2162497533
  O        20.2810967463       19.8317743125       19.6026875260
       3
 i =       87, time =       87.000, E =       -17.2024808708
  H        19.8986776136       20.6478603013       20.0635392577
  H        21.0583444855       19.5578927494       20.2073887937
  O        20.2825846355       19.8349934571       19.6043543527
       3
 i =       88, time =       88.000, E =       -17.2028822951
  H        19.8956541466       20.6380787129       20.0503230157
  H        21.0695442893       19.5497232384       20.1892961059
  O        20.2845165866       19.8384696621       19.6070343727
       3
 i =       89, time =       89.000, E =       -17.2037604001
  H        19.8977305558       20.6221022222       20.0360579097
  H        21.0665432317       19.5488644248       20.1631146083
  O        20.2870000822       19.8418371072       19.6104318241
       3
 i =       90, time =       90.000, E =       -17.2033087937
  H        19.9014310111       20.6080831553       20.0257679213
  H        21.0544949477       19.5539736365       20.1334640993
  O        20.2899352485       19.8446640436       19.6139320212
       3
 i =       91, time =       91.000, E =       -17.2016721161
  H        19.9029204120       20.6040468641       20.0239849068
  H        21.0437948586       19.5614040932       20.1079403041
  O        20.2929118911       19.8466706137       19.6167510158
       3
 i =       92, time =       92.000, E =       -17.2013894754
  H        19.9009980758       20.6124882859       20.0320981334
  H        21.0463038219       19.5668299675       20.0944300388
  O        20.2952535214       19.8479690897       19.6182732734
       3
 i =       93, time =       93.000, E =       -17.2029278690
  H        19.8983515414       20.6284759154       20.0475546224
  H        21.0665359442       19.5688272598       20.0956937324
  O        20.2964930992       19.8489606007       19.6184532411
       3
 i =       94, time =       94.000, E =       -17.2035261152
  H        19.8993791553       20.6437711336       20.0659463187
  H        21.0970488466       19.5704306371       20.1069844242
  O        20.2968076009       19.8499789988       19.6178449668
       3
 i =       95, time =       95.000, E =       -17.2026502017
  H        19.9073909922       20.6517338813       20.0834057794
  H        21.1252511114       19.5761102673       20.1204081693
  O        20.2967740725       19.8511712720       19.6171809279
       3
 i =       96, time =       96.000, E =       -17.2022791975
  H        19.9233625988       20.6494699759       20.0977161654
  H        21.1414623097       19.5886368133       20.1296349164
  O        20.2969437913       19.8525572408       19.6170026245
       3
 i =       97, time =       97.000, E =       -17.2033362442
  H        19.9458366858       20.6381244476       20.1085955678
  H        21.1416626771       19.6082564049       20.1314043115
  O        20.2976715680       19.8540613102       19.6175416206
       3
 i =       98, time =       98.000, E =       -17.2045070744
  H        19.9712580592       20.6224836405       20.1176749944
  H        21.1277215479       19.6329121609       20.1256043715
  O        20.2990762761       19.8555206741       19.6187099560
       3
 i =       99, time =       99.000, E =       -17.2039448349
  H        19.9948086625       20.6096083040       20.1279129737
  H        21.1074012183       19.6586290926       20.1153169008
  O        20.3009836116       19.8567478312       19.6201290789
       3
 i =      100, time =      100.000, E =       -17.2021755950
  H        20.0121027228       20.6056367677       20.1418361580
  H        21.0931477833       19.6803765618       20.1063019757
  O        20.3028909726       19.8576763993       19.6212703424
       3
 i =      101, time =      101.000, E =       -17.2018899240
  H        20.0211333491       20.6119188123       20.1592389496
  H        21.0964557283       19.6941014795       20.1039885275
  O        20.3041963262       19.8584776314       19.6217912727
       3
 i =      102, time =      102.000, E =       -17.2030233949
  H        20.0228566740       20.6242267875       20.1767498084
  H        21.1190178596       19.6989960053       20.1085581899
  O        20.3047212615       19.8594728565       19.6218803230
       3
 i =      103, time =      103.000, E =       -17.2030651114
  H        20.0199677053       20.6359266899       20.1899108260
  H        21.1513353273       19.6973885582       20.1143839959
  O        20.3048849521       19.8609437189       19.6221698031
       3
 i =      104, time =      104.000, E =       -17.2020900072
  H        20.0152404881       20.6416209431       20.1954805509
  H        21.1807417262       19.6926014437       20.1148017250
  O        20.3053088966       19.8630380248       19.6232924498
       3
 i =      105, time =      105.000, E =       -17.2019715623
  H        20.0104981712       20.6390078465       20.1925412594
  H        21.1981121892       19.6873545804       20.1057101690
  O        20.3064599509       19.8657502742       19.6255804796
       3
 i =      106, time =      106.000, E =       -17.2032740293
  H        20.0062017721       20.6293469157       20.1827255120
  H        21.1998419955       19.6832535356       20.0862737645
  O        20.3085488165       19.8689209413       19.6290002925
       3
 i =      107, time =      107.000, E =       -17.2045617279
  H        20.0014134129       20.6171491347       20.1699397569
  H        21.1880565712       19.6806636502       20.0586646839
  O        20.3115138803       19.8722544248       19.6331800799
       3
 i =      108, time =      108.000, E =       -17.2041479258
  H        19.9942912010       20.6087063069       20.1592818385
  H        21.1708220931       19.6785923624       20.0278167069
  O        20.3149744149       19.8754188035       19.6374903487
       3
 i =      109, time =      109.000, E =       -17.2027238978
  H        19.9835037305       20.6088686000       20.1547859435
  H        21.1608759860       19.6749191866       20.0004686015
  O        20.3182182798       19.8782327035       19.6412451662
       3
 i =      110, time =      110.000, E =       -17.2027108055
  H        19.9699864641       20.6176983123       20.1571932149
  H        21.1691647807       19.6679221601       19.9820729010
  O        20.3204919532       19.8807878737       19.6440367180
       3
 i =      111, time =      111.000, E =       -17.2035235841
  H        19.9571627334       20.6305388198       20.1640727634
  H        21.1953607455       19.6586968039       19.9731702556
  O        20.3215849464       19.8833008227       19.6459617481
       3
 i =      112, time =      112.000, E =       -17.2029230939
  H        19.9492007603       20.6413986612       20.1720294903
  H        21.2278430736       19.6511891081       19.9700385746
  O        20.3219518162       19.8858979664       19.6474491782
       3
 i =      113, time =      113.000, E =       -17.2016199883
  H        19.9491207384       20.6460561311       20.1786321170
  H        21.2532436554       19.6495337106       19.9684633553
  O        20.3222392607       19.8885845334       19.6489047135
       3