      18
 i =        1, time =        1.000, E =      -103.3047456178
  H        17.2275494200       18.6995143865       20.6457957033
  H        22.7712025505       21.1170389269       20.8139281225
  H        22.1722179589       19.9249825379       19.9748755670
  H        22.2945155610       18.1993944584       18.4942523524
  H        21.6827030240       17.9846838375       19.8765536726
  H        18.6598046271       21.4938875040       19.6221369667
  H        17.6348846853       21.4530014337       18.5143435577
  H        19.5583210923       17.6002625973       20.5499861674
  H        20.5723049866       16.8287320759       21.5014519528
  H        20.3207798910       23.1432527424       20.6030635543
  H        20.7056100619       21.7744436275       20.0045458220
  H        18.1435729655       19.0045084555       19.4428716392
  O        17.9774297317       18.3185395330       20.1697863709
  O        21.9450351374       20.7892538986       20.4136620815
  O        22.5256304415       18.3282257589       19.4600014655
  O        18.0143863216       20.8827719849       19.2223511975
  O        20.4300580307       17.0916468564       20.5353631521
  O        20.1312012994       22.5566459028       19.8009027119
      18
 i =        2, time =        2.000, E =      -103.3029986391
  H        17.2344686587       18.7022489167       20.6436981440
  H        22.7606522033       21.1293362926       20.8193913485
  H        22.1861225033       19.9167101846       20.0057560781
  H        22.2815033835       18.2007516304       18.4964010673
  H        21.7066580912       17.9775388628       19.8703018317
  H        18.6236625367       21.4956903529       19.6275347642
  H        17.6160946179       21.4639096399       18.5010929048
  H        19.5845315078       17.6105166615       20.5707006274
  H        20.5772220406       16.8085653289       21.4896151118
  H        20.3199544416       23.1315022921       20.5846495280
  H        20.6866718139       21.7681601843       20.0129617500
  H        18.1171609800       18.9998999421       19.4494609017
  O        17.9766882534       18.3228628609       20.1710724670
  O        21.9413022818       20.7906643260       20.4163625360
  O        22.5324822864       18.3319649542       19.4622601865
  O        18.0144931800       20.8775620255       19.2175490915
  O        20.4366357312       17.0934329731       20.5321380070
  O        20.1249295406       22.5521351941       19.8009826186
      18
 i =        3, time =        3.000, E =      -103.3032791631
  H        17.2349291440       18.7088273518       20.6470732252
  H        22.7509270951       21.1413666166       20.8244582697
  H        22.2025471076       19.9046573801       20.0347694398
  H        22.2743899243       18.2045466726       18.5083010816
  H        21.7253202984       17.9639144828       19.8709322738
  H        18.6008863925       21.5083116625       19.6401820144
  H        17.6019825854       21.4659301848       18.4961760832
  H        19.6082433249       17.6199134404       20.5908298279
  H        20.5806137736       16.7920057033       21.4647551638
  H        20.3163706050       23.1164965164       20.5600519934
  H        20.6745838163       21.7581727584       20.0209288243
  H        18.0898373846       18.9953258150       19.4606861210
  O        17.9764170824       18.3270614454       20.1718826452
  O        21.9375041828       20.7921688927       20.4192703323
  O        22.5392430391       18.3359353870       19.4634253373
  O        18.0134924839       20.8722945148       19.2117052622
  O        20.4433245036       17.0950846855       20.5297793780
  O        20.1182117575       22.5482310317       19.8014426080
      18
 i =        4, time =        4.000, E =      -103.3039180833
  H        17.2294514949       18.7182595033       20.6562080191
  H        22.7420815840       21.1536817736       20.8294384553
  H        22.2200700314       19.8910073482       20.0621884751
  H        22.2731137967       18.2109451629       18.5268272004
  H        21.7376592066       17.9436350432       19.8796319687
  H        18.5894369683       21.5296161496       19.6586695771
  H        17.5940227727       21.4571406857       18.5017044422
  H        19.6264569281       17.6304863734       20.6095391456
  H        20.5839087219       16.7769675435       21.4330724225
  H        20.3121987425       23.1055540227       20.5383967832
  H        20.6683213812       21.7453221295       20.0275638986
  H        18.0637819155       18.9950663838       19.4707405903
  O        17.9764460938       18.3308846102       20.1725776454
  O        21.9337126652       20.7936066398       20.4223537408
  O        22.5460234546       18.3401313187       19.4636329379
  O        18.0114217097       20.8672312583       19.2047878852
  O        20.4502216019       17.0966109963       20.5279529631
  O        20.1109640136       22.5444185630       19.8017792413
      18
 i =        5, time =        5.000, E =      -103.3031958555
  H        17.2221074126       18.7278718352       20.6690428924
  H        22.7338079689       21.1666947202       20.8344312191
  H        22.2369212511       19.8786914674       20.0884114891
  H        22.2761628945       18.2195186400       18.5453203358
  H        21.7465231932       17.9183630945       19.8951325057
  H        18.5832287622       21.5525247997       19.6779965728
  H        17.5910754219       21.4393559173       18.5152756735
  H        19.6381054034       17.6431988809       20.6260065057
  H        20.5890470686       16.7596723287       21.4045983007
  H        20.3097471479       23.1055938755       20.5282926515
  H        20.6659129518       21.7321693050       20.0317633942
  H        18.0405464957       19.0027515797       19.4748174217
  O        17.9764267015       18.3342243458       20.1736001897
  O        21.9300418379       20.7947713668       20.4255747263
  O        22.5527955824       18.3444766563       19.4634021232
  O        18.0087438811       20.8627073789       19.1972685336
  O        20.4572686085       17.0982040181       20.5260827275
  O        20.1031613826       22.5400763208       19.8015422527
      18
 i =        6, time =        6.000, E =      -103.3019446984
  H        17.2178279943       18.7347456049       20.6827392086
  H        22.7254794911       21.1805972253       20.8393116911
  H        22.2514002221       19.8702608230       20.1135464802
  H        22.2810877986       18.2294996658       18.5559823829
  H        21.7566884677       17.8910734788       19.9144083050
  H        18.5766544623       21.5697056252       19.6927998127
  H        17.5893685684       21.4179085584       18.5303507134
  H        19.6445288507       17.6574162027       20.6394905009
  H        20.5975742096       16.7362525319       21.3884179530
  H        20.3096958360       23.1180237233       20.5314637295
  H        20.6653475222       21.7217147943       20.0327087680
  H        18.0207789382       19.0188049616       19.4720346479
  O        17.9760186121       18.3371933421       20.1751932543
  O        21.9266231238       20.7954904224       20.4289191685
  O        22.5594543747       18.3488347378       19.4634382899
  O        18.0060581992       20.8588403703       19.1898831067
  O        20.4642781709       17.1001645714       20.5236424610
  O        20.0948931628       22.5348846006       19.8007007279
      18
 i =        7, time =        7.000, E =      -103.3010441147
  H        17.2199813500       18.7369451152       20.6952215727
  H        22.7163752748       21.1953743926       20.8438229052
  H        22.2622313176       19.8671799340       20.1372855856
  H        22.2858166614       18.2403109764       18.5541349341
  H        21.7723316717       17.8649438925       19.9338967657
  H        18.5665992666       21.5763907725       19.6994410643
  H        17.5834197961       21.4001755853       18.5380725332
  H        19.6486367134       17.6712809261       20.6494777016
  H        20.6094772046       16.7057082430       21.3860462742
  H        20.3104298176       23.1372999327       20.5413015227
  H        20.6651973919       21.7162855395       20.0301441701
  H        18.0045619372       19.0399226246       19.4658541721
  O        17.9750206130       18.3400826547       20.1772754925
  O        21.9235727294       20.7956720042       20.4324054954
  O        22.5658810184       18.3530403314       19.4642825496
  O        18.0039019486       20.8554496308       19.1833948992
  O        20.4710602691       17.1026795590       20.5205635491
  O        20.0863674709       22.5289950179       19.7997119305
      18
 i =        8, time =        8.000, E =      -103.3010866868
  H        17.2292706125       18.7340261276       20.7059985086
  H        22.7059740507       21.2108845770       20.8477212024
  H        22.2687953619       19.8695791943       20.1589923023
  H        22.2899225242       18.2519665159       18.5416492142
  H        21.7957278386       17.8425254211       19.9504109329
  H        18.5523563766       21.5709123979       19.6965038962
  H        17.5690943755       21.3914362848       18.5321684435
  H        19.6534885290       17.6826211019       20.6558050735
  H        20.6229537321       16.6712534445       21.3902555574
  H        20.3094322648       23.1552197470       20.5484468762
  H        20.6648347013       21.7169393356       20.0243524830
  H        17.9918680117       19.0611447423       19.4615903667
  O        17.9734095837       18.3431972838       20.1795438579
  O        21.9209614860       20.7953201249       20.4360701919
  O        22.5719473305       18.3569277129       19.4660298114
  O        18.0025647134       20.8522899531       19.1782638749
  O        20.4775248773       17.1056713488       20.5173023145
  O        20.0778168283       22.5228225893       19.7991640861
      18
 i =        9, time =        9.000, E =      -103.3017256529
  H        17.2436605164       18.7270148003       20.7163707169
  H        22.6941732243       21.2269438092       20.8508969916
  H        22.2712451227       19.8762772962       20.1778776743
  H        22.2944934346       18.2648520201       18.5257571258
  H        21.8270869497       17.8253613777       19.9616555388
  H        18.5351979194       21.5546500157       19.6847883095
  H        17.5472160185       21.3906161787       18.5141025488
  H        19.6611902761       17.6897580658       20.6586812843
  H        20.6354497992       16.6382100980       21.3909881759
  H        20.3048221152       23.1654299469       20.5461103908
  H        20.6644264779       21.7233027812       20.0159842561
  H        17.9827148432       19.0782608550       19.4636579323
  O        17.9713338691       18.3467040354       20.1816319895
  O        21.9187944066       20.7945301102       20.4399552746
  O        22.5775456564       18.3603743862       19.4683654514
  O        18.0018903196       20.8493271505       19.1743303525
  O        20.4836848144       17.1088812078       20.5144729023
  O        20.0693994159       22.5167939415       19.7994448679
      18
 i =       10, time =       10.000, E =      -103.3021032600
  H        17.2591405808       18.7179741867       20.7290699650
  H        22.6813437089       21.2433664470       20.8534179384
  H        22.2704998933       19.8849692928       20.1931509220
  H        22.3009118087       18.2791849603       18.5145356407
  H        21.8647739521       17.8137392335       19.9665731095
  H        18.5183190830       21.5321732761       19.6673758341
  H        17.5231615409       21.3915384930       18.4918458471
  H        19.6723607987       17.6919637947       20.6586461717
  H        20.6447830547       16.6111594170       21.3810086902
  H        20.2959523821       23.1652813945       20.5318826317
  H        20.6648457322       21.7336997347       20.0058663814
  H        17.9770977240       19.0890443290       19.4742029034
  O        17.9690675717       18.3505807545       20.1832201251
  O        21.9170063519       20.7934728698       20.4440983261
  O        22.5826658723       18.3633541445       19.4708300952
  O        18.0013117932       20.8466522704       19.1708925437
  O        20.4896203435       17.1120228291       20.5124940422
  O        20.0611450285       22.5112138390       19.8006398571
      18
 i =       11, time =       11.000, E =      -103.3022683889
  H        17.2715149126       18.7090708359       20.7470786643
  H        22.6682140399       21.2599456232       20.8554825179
  H        22.2680606262       19.8926863840       20.2041306505
  H        22.3098648006       18.2947406229       18.5132485276
  H        21.9055165376       17.8064183363       19.9656371638
  H        18.5067390836       21.5110017642       19.6493757139
  H        17.5030287449       21.3878640901       18.4740379113
  H        19.6860024610       17.6896318678       20.6564972828
  H        20.6496810359       16.5923728524       21.3579398042
  H        20.2835112620       23.1563158415       20.5078997275
  H        20.6674601372       21.7455712791       19.9948104649
  H        17.9748889891       19.0936533697       19.4927854609
  O        17.9669009050       18.3546523893       20.1841329897
  O        21.9154768664       20.7923640990       20.4485280030
  O        22.5874551288       18.3659713838       19.4730377120
  O        18.0001041369       20.8441878610       19.1670922064
  O        20.4954606404       17.1148822827       20.5114678103
  O        20.0529310571       22.5061822454       19.8025436008
      18
 i =       12, time =       12.000, E =      -103.3025352629
  H        17.2788197958       18.7013826261       20.7717383418
  H        22.6556460191       21.2763878472       20.8573120904
  H        22.2655851256       19.8966885691       20.2103885345
  H        22.3209832320       18.3109183352       18.5227958973
  H        21.9446300132       17.8005133379       19.9609589444
  H        18.5057967817       21.4992049250       19.6361316425
  H        17.4907831010       21.3761076631       18.4660639435
  H        19.6996819912       17.6842123246       20.6531606978
  H        20.6499515323       16.5810660724       21.3244616283
  H        20.2695023153       23.1443585692       20.4806322366
  H        20.6736687357       21.7562648236       19.9834220462
  H        17.9757854692       19.0947736164       19.5165164444
  O        17.9649890308       18.3586614223       20.1844539683
  O        21.9140651946       20.7914090508       20.4532576509
  O        22.5922241697       18.3684646901       19.4747746888
  O        17.9976613636       20.8416510129       19.1622744635
  O        20.5013706162       17.1173791325       20.5111754036
  O        20.0444950925       22.5015195078       19.8046969721
      18
 i =       13, time =       13.000, E =      -103.3027505104
  H        17.2825917382       18.6943652810       20.8014189211
  H        22.6443993886       21.2922424634       20.8590362501
  H        22.2643169332       19.8956186431       20.2119336714
  H        22.3328361012       18.3269581757       18.5394643439
  H        21.9769752621       17.7920955665       19.9557260775
  H        18.5176666291       21.5004191605       19.6296597569
  H        17.4872559470       21.3562658004       18.4688656024
  H        19.7101623475       17.6778016067       20.6494872796
  H        20.6464717483       16.5730250046       21.2879459438
  H        20.2568065887       23.1382153368       20.4592546686
  H        20.6842174306       21.7640539617       19.9719915015
  H        17.9793216314       19.0973240625       19.5407315392
  O        17.9632723264       18.3623231628       20.1845687264
  O        21.9126560952       20.7907326818       20.4582761483
  O        22.5973850004       18.3711580995       19.4760586083
  O        17.9937801286       20.8388274826       19.1562851950
  O        20.5075168384       17.1196216418       20.5111077557
  O        20.0355191638       22.4967805306       19.8065027239
      18
 i =       14, time =       14.000, E =      -103.3030812305
  H        17.2866748025       18.6865464062       20.8321425687
  H        22.6349768865       21.3068767622       20.8606265413
  H        22.2646814483       19.8902132056       20.2093129795
  H        22.3431866685       18.3421810992       18.5558554215
  H        21.9988995566       17.7780317060       19.9525827178
  H        18.5391810018       21.5110856578       19.6268080643
  H        17.4898308631       21.3317299838       18.4787031823
  H        19.7145891269       17.6723012553       20.6460186865
  H        20.6407540361       16.5614032117       21.2584322530
  H        20.2476628444       23.1449343981       20.4507226050
  H        20.6986593735       21.7688535861       19.9605737782
  H        17.9849288277       19.1068947639       19.5607537472
  O        17.9615511445       18.3653805558       20.1850162255
  O        21.9111920523       20.7903352898       20.4635443685
  O        22.6033074322       18.3743333796       19.4771864420
  O        17.9888220616       20.8357500470       19.1495982011
  O        20.5140167707       17.1219100771       20.5106034131
  O        20.0258056329       22.4915173432       19.8075303868
      18
 i =       15, time =       15.000, E =      -103.3039264356
  H        17.2947965962       18.6766969799       20.8596574388
  H        22.6275976420       21.3195288873       20.8619076525
  H        22.2663213763       19.8829426812       20.2034989858
  H        22.3497652440       18.3561836169       18.5639906622
  H        22.0100773566       17.7582191437       19.9518085221
  H        18.5641035768       21.5237792165       19.6218607894
  H        17.4926923515       21.3087512818       18.4876263224
  H        19.7118276824       17.6684550213       20.6428377277
  H        20.6338115808       16.5403890515       21.2432964879
  H        20.2417897553       23.1638349792       20.4542171608
  H        20.7153667917       21.7721004709       19.9492049147
  H        17.9919655202       19.1267364304       19.5745250746
  O        17.9596398675       18.3677170158       20.1861925876
  O        21.9096710940       20.7901105850       20.4690019783
  O        22.6101498849       18.3780754320       19.4786538418
  O        17.9835641351       20.8325189534       19.1431112321
  O        20.5209149903       17.1245630721       20.5091932609
  O        20.0154318067       22.4856805768       19.8078460622
      18
 i =       16, time =       16.000, E =      -103.3047678803
  H        17.3088235953       18.6645286601       20.8812922163
  H        22.6222901915       21.3294374203       20.8626369578
  H        22.2684811915       19.8768504675       20.1956172305
  H        22.3515683888       18.3688936869       18.5603426727
  H        22.0133472683       17.7360133077       19.9511794587
  H        18.5867495223       21.5320195119       19.6101179343
  H        17.4890674225       21.2940722779       18.4865378901
  H        19.7030703950       17.6654552795       20.6395777780
  H        20.6251825568       16.5102114303       21.2414824938
  H        20.2365867209       23.1868541300       20.4621338952
  H        20.7320491442       21.7759255258       19.9380547259
  H        17.9996719708       19.1554875429       19.5840472736
  O        17.9574811216       18.3694516022       20.1881397714
  O        21.9081182755       20.7899111710       20.4745810943
  O        22.6177882773       18.3822366919       19.4808453970
  O        17.9788271411       20.8291426934       19.1377168998
  O        20.5281976508       17.1276220476       20.5069581468
  O        20.0047345751       22.4796581069       19.8079295145
      18
 i =       17, time =       17.000, E =      -103.3048781512
  H        17.3281867271       18.6507886948       20.8969156928
  H        22.6190440893       21.3359986633       20.8626105171
  H        22.2704199112       19.8744464115       20.1866982227
  H        22.3496556242       18.3804386888       18.5485793823
  H        22.0126985394       17.7163734216       19.9476586490
  H        18.6036423086       21.5322714896       19.5893172343
  H        17.4760760192       21.2903252479       18.4716147036
  H        19.6912710695       17.6614505577       20.6355458506
  H        20.6135364180       16.4773444437       21.2446257802
  H        20.2291294385       23.2046719619       20.4661574067
  H        20.7463884630       21.7822545505       19.9274226742
  H        18.0071659211       19.1881350537       19.5939072751
  O        17.9551814583       18.3708710673       20.1905740601
  O        21.9065546139       20.7896106370       20.4802190936
  O        22.6258883247       18.3865409833       19.4837462310
  O        17.9750532190       20.8256970568       19.1338071377
  O        20.5357793238       17.1307998689       20.5044459995
  O        19.9941354577       22.4739196537       19.8082795269
      18
 i =       18, time =       18.000, E =      -103.3042083605
  H        17.3501808548       18.6369901679       20.9090299002
  H        22.6179392253       21.3388839704       20.8617443139
  H        22.2716574095       19.8771531257       20.1775569193
  H        22.3464849287       18.3909785421       18.5367062258
  H        22.0114924987       17.7036655304       19.9390944310
  H        18.6135820039       21.5238679067       19.5594780280
  H        17.4575028729       21.2937285780       18.4478971330
  H        19.6799238777       17.6545014342       20.6298883476
  H        20.5980308708       16.4496587516       21.2434823402
  H        20.2175513324       23.2112478125       20.4612096622
  H        20.7565096803       21.7922750030       19.9176449165
  H        18.0135770624       19.2189220437       19.6085232451
  O        17.9529808312       18.3722616487       20.1930518199
  O        21.9049796563       20.7891345113       20.4858656863
  O        22.6340701967       18.3907261764       19.4870010695
  O        17.9721112170       20.8224710460       19.1310660054
  O        20.5434860433       17.1337187751       20.5022540705
  O        19.9839618577       22.4687370140       19.8091724723
      18
 i =       19, time =       19.000, E =      -103.3043984274
  H        17.3710516064       18.6248591515       20.9218263174
  H        22.6191881470       21.3380748316       20.8600989893
  H        22.2720621294       19.8852136238       20.1687576950
  H        22.3445666296       18.4006747850       18.5320336901
  H        22.0117966644       17.7004812001       19.9249090514
  H        18.6174086424       21.5085221811       19.5223640619
  H        17.4404518703       21.2974869469       18.4248310432
  H        19.6719677492       17.6433459171       20.6217584700
  H        20.5788533522       16.4324711264       21.2322261211
  H        20.2013966432       23.2052013968       20.4463348955
  H        20.7612785810       21.8062434081       19.9090035295
  H        18.0182280570       19.2434395682       19.6304849162
  O        17.9511677026       18.3738060557       20.1951332920
  O        21.9033690890       20.7884668831       20.4914889950
  O        22.6420305989       18.3946257858       19.4901831369
  O        17.9695162735       20.8197843573       19.1287962659
  O        20.5510888020       17.1361140102       20.5007588144
  O        19.9743670520       22.4641286226       19.8106255058
      18
 i =       20, time =       20.000, E =      -103.3064808926
  H        17.3878564105       18.6155287346       20.9390389108
  H        22.6230648797       21.3338103197       20.8578435186
  H        22.2718490704       19.8977884210       20.1605861102
  H        22.3455593409       18.4097644083       18.5381363017
  H        22.0143183932       17.7072978395       19.9060939392
  H        18.6179681397       21.4899976154       19.4809751654
  H        17.4306741380       21.2960923105       18.4101323340
  H        19.6691260113       17.6277666387       20.6104483587
  H        20.5569960011       16.4271146835       21.2094749877
  H        20.1816146849       23.1900725237       20.4246445895
  H        20.7605413845       21.8234349359       19.9016851251
  H        18.0207599673       19.2594271946       19.6602437528
  O        17.9499507999       18.3755808830       20.1965394079
  O        21.9016827428       20.7876501824       20.4970757580
  O        22.6496515147       18.3981900474       19.4929914927
  O        17.9667289589       20.8177430290       19.1263298362
  O        20.5583685246       17.1379086659       20.5000587434
  O        19.9653179183       22.4598774699       19.8124122447
      18
 i =       21, time =       21.000, E =      -103.3084985163
  H        17.4001934125       18.6088587228       20.9615157047
  H        22.6297471526       21.3264775789       20.8551817902
  H        22.2715227515       19.9131128919       20.1529998599
  H        22.3499352441       18.4186521702       18.5539834246
  H        22.0183903676       17.7224625653       19.8850052985
  H        18.6198486001       21.4734928388       19.4389643335
  H        17.4305491179       21.2869909826       18.4071867783
  H        19.6715636190       17.6086928730       20.5954561555
  H        20.5337925030       16.4305482854       21.1781585720
  H        20.1603760835       23.1740917557       20.4029158675
  H        20.7553485607       21.8421472918       19.8958058678
  H        18.0211930000       19.2669986408       19.6963479882
  O        17.9493467813       18.3775850141       20.1972918553
  O        21.8998775697       20.7867826634       20.5026423968
  O        22.6569818656       18.4014883119       19.4953239960
  O        17.9633051823       20.8161796064       19.1232280226
  O        20.5651830437       17.1392382238       20.4999856738
  O        19.9566018884       22.4555570964       19.8140913867
      18
 i =       22, time =       22.000, E =      -103.3084032465
  H        17.4102652901       18.6034818871       20.9865878934
  H        22.6391450703       21.3164990748       20.8522829510
  H        22.2717400669       19.9287755984       20.1456172541
  H        22.3569518714       18.4279721370       18.5742082794
  H        22.0219479954       17.7424230760       19.8650634167
  H        18.6278702167       21.4638679355       19.3995177514
  H        17.4387088775       21.2707513991       18.4145574930
  H        19.6777346338       17.5881411891       20.5764814814
  H        20.5104020672       16.4355043177       21.1449118624
  H        20.1402372800       23.1676037870       20.3893392762
  H        20.7480268779       21.8598749131       19.8914995963
  H        18.0199362662       19.2688111624       19.7357656810
  O        17.9491781113       18.3797299596       20.1977330440
  O        21.8979263862       20.7860066804       20.5082255197
  O        22.6642314398       18.4046925780       19.4972889787
  O        17.9590211884       20.8147570852       19.1193783750
  O        20.5715226786       17.1404456959       20.5001420400
  O        19.9478832087       22.4506778100       19.8151409242
      18
 i =       23, time =       23.000, E =      -103.3070012692
  H        17.4212376254       18.5975474861       21.0098929236
  H        22.6508066951       21.3042707020       20.8492535900
  H        22.2730555125       19.9422405108       20.1378412663
  H        22.3649881131       18.4385460954       18.5906794988
  H        22.0219593455       17.7626055841       19.8500883339
  H        18.6442103531       21.4628977582       19.3641657759
  H        17.4500676210       21.2509694624       18.4259461434
  H        19.6845808711       17.5689073880       20.5533689923
  H        20.4873848746       16.4326257849       21.1177351323
  H        20.1223835002       23.1764761510       20.3882605614
  H        20.7417598738       21.8738703364       19.8890237713
  H        18.0177178606       19.2698858199       19.7744511632
  O        17.9491848514       18.3818098672       20.1983788296
  O        21.8958318839       20.7854763839       20.5138668601
  O        22.6717195715       18.4080291678       19.4991527408
  O        17.9540536121       20.8131460055       19.1150745339
  O        20.5775287643       17.1419632570       20.5000465500
  O        19.9388635845       22.4450485681       19.8152753359
      18
 i =       24, time =       24.000, E =      -103.3062569643
  H        17.4354666957       18.5894935145       21.0278835782
  H        22.6639529653       21.2901673077       20.8461589527
  H        22.2755747806       19.9515971031       20.1291625558
  H        22.3725289622       18.4511360769       18.5962201128
  H        22.0158217721       17.7792661126       19.8430519035
  H        18.6665718596       21.4680356117       19.3326125694
  H        17.4569047247       21.2334255840       18.4314528109
  H        19.6884874129       17.5538255896       20.5260503266
  H        20.4648979503       16.4160290168       21.1009937846
  H        20.1055970968       23.1968130061       20.3963873002
  H        20.7393994097       21.8821358726       19.8887864681
  H        18.0153719973       19.2761238807       19.8083665691
  O        17.9491534007       18.3835508793       20.1996939787
  O        21.8936407528       20.7853051996       20.5196036332
  O        22.6797151954       18.4116781136       19.5011873910
  O        17.9490241121       20.8111517146       19.1109524914
  O        20.5834173766       17.1440071727       20.4994423687
  O        19.9294325147       22.4390273631       19.8146793264
      18
 i =       25, time =       25.000, E =      -103.3071044197
  H        17.4536175957       18.5784553997       21.0393899335
  H        22.6776328809       21.2745948676       20.8430776253