      60
 i =        1, time =        1.000, E =      -344.4183569531
  H        17.9359554988       15.8517694028       18.1065341758
  H        19.9992061754       21.5310923702       18.7185778671
  H        21.0212829658       21.3145733994       17.7175117709
  H        21.6933408396       16.0809412172       22.7801743583
  H        20.2575939123       16.7199474828       22.2067807306
  H        18.0932111729       23.3914626819       21.5414224976
  H        17.3196850785       23.8603184652       20.1615023347
  H        18.6277486384       16.6824442445       20.3764388298
  H        19.0453544991       18.0853947966       21.2627702896
  H        18.3535353662       22.7733731488       17.7841145727
  H        18.7975729380       23.9877848837       18.6416987872
  H        20.5859119137       20.4501046349       23.5777394958
  H        19.1981150532       20.2996653145       24.3837999999
  H        18.6841911161       19.5853976336       15.5500803346
  H        19.0932895978       20.0098490501       16.9657978392
  H        24.2714004352       18.3210794103       19.1682893051
  H        22.6486933934       17.9976548865       19.3686557975
  H        21.6365393908       18.1755062648       23.2794060028
  H        22.5211053300       18.8688064315       24.4086751150
  H        15.7150790816       20.7741649471       20.8740097988
  H        16.6194685473       21.9346945355       20.6369923423
  H        22.9734028537       20.2042163650       18.0106671866
  H        22.8182829109       21.6136346015       18.5862792419
  H        20.0783248396       20.8312577237       20.8439120472
  H        21.6070019012       21.1129053893       20.8374675631
  H        20.7847663777       17.2507277090       19.9697223582
  H        21.0430164211       17.1821557245       18.4472428064
  H        19.4300155889       22.4686155845       23.0574710807
  H        20.0916298532       23.8640355803       22.6073487233
  H        21.3065803908       24.1733459636       19.1031085870
  H        20.4536362840       23.1404994950       19.9633847393
  H        20.8996736802       17.0279994491       16.3172586013
  H        19.6131011678       17.8884785147       16.6007794653
  H        18.8676030316       20.1560029878       22.1688617240
  H        17.8814437549       20.1929494155       20.9308359998
  H        23.2986553400       19.7993354263       20.4142843418
  H        23.0763955233       20.0056603276       21.9968364029
  H        17.2341883304       19.0725143561       17.5593238930
  H        17.1407836767       17.1072108841       18.8297036374
  H        16.6380568144       19.7082309991       18.8869927670
  O        17.5395687150       16.1774878724       18.9288990889
  O        20.0331703785       21.3329161857       17.7220340503
  O        20.9017245728       16.5698565962       23.0383008329
  O        17.1892904633       23.3829174214       21.0242724876
  O        19.2776964104       17.0737924892       20.9748211928
  O        17.9279951722       23.5504083917       18.2691572606
  O        19.5975527663       20.7689186492       23.5945914900
  O        18.7389804756       19.2283649611       16.4702449562
  O        23.3965373049       18.7777491979       19.2133713160
  O        21.9082977380       19.0620107154       23.6409711672
  O        16.4575673924       20.9611889544       20.2827054958
  O        22.8748733163       21.1349803491       17.7264532499
  O        20.7445040201       21.3939711524       20.4054422225
  O        21.5365233910       17.1523800811       19.3277031807
  O        19.2216335317       23.4641544411       22.9407238128
  O        20.5244845747       24.1078234343       19.6908069905
  O        20.1045122776       17.0395534553       16.9114835982
  O        18.7735036727       19.7893003159       21.2583000120
  O        23.1997541083       20.4887082460       21.1685189730
  O        16.6929446837       18.8467891356       18.3510335229
      60
 i =        2, time =        2.000, E =      -344.4143821406
  H        17.9269172766       15.8724927259       18.1225833614
  H        20.0008407547       21.5058435385       18.7086524253
  H        21.0270508922       21.3131772832       17.6980152942
  H        21.7157839129       16.0593286960       22.7827581096
  H        20.2557212373       16.7230828447       22.1980262797
  H        18.0751776129       23.3828799277       21.5554324069
  H        17.3087634615       23.8637186606       20.1886692496
  H        18.6319636942       16.6900048486       20.3895944372
  H        19.0510344147       18.0599836842       21.2462188356
  H        18.3630487924       22.7862271652       17.7522406623
  H        18.7915026927       23.9955057934       18.6692843133
  H        20.5615112814       20.4356963715       23.5737268875
  H        19.2151646151       20.2793861951       24.3856620218
  H        18.6717639334       19.6066599912       15.5380150411
  H        19.0884835612       20.0058038443       16.9657133456
  H        24.2522849005       18.2964876022       19.1627328634
  H        22.6362480656       17.9834462401       19.3927392531
  H        21.6194042325       18.1636713788       23.2575926437
  H        22.5128778701       18.8672414221       24.3745038253
  H        15.7099723338       20.7982532918       20.8662895426
  H        16.6211810971       21.9510447992       20.6578813718
  H        22.9454708666       20.2036826803       18.0007817394
  H        22.8200655901       21.5802113137       18.5793476869
  H        20.0549832664       20.8411405217       20.8573500471
  H        21.5975784144       21.1073878614       20.8248736151
  H        20.7708644706       17.2576573484       19.9931970454
  H        21.0412449133       17.2062459246       18.4446956771
  H        19.4417985843       22.4727136622       23.0698157421
  H        20.1073291944       23.8761998854       22.5943825405
  H        21.2983911823       24.1803533828       19.1025001931
  H        20.4501993783       23.1478066137       19.9461794801
  H        20.8987476383       17.0292394033       16.3229345532
  H        19.6105878338       17.8820831567       16.5774671231
  H        18.8627377696       20.1667372319       22.1599560291
  H        17.8716604209       20.1914197908       20.9517661041
  H        23.3049488165       19.8051914931       20.4199833026
  H        23.0875611760       20.0076097683       21.9785476302
  H        17.2435117456       19.0851451205       17.5416176643
  H        17.1455244351       17.1087180642       18.8196161173
  H        16.6377881923       19.6772916950       18.8806287542
  O        17.5345457796       16.1748120996       18.9282433651
  O        20.0367438208       21.3305416782       17.7219204589
  O        20.9012863986       16.5672051707       23.0367989210
  O        17.1914373712       23.3820006715       21.0243366157
  O        19.2895335274       17.0805255883       20.9768746720
  O        17.9226626237       23.5530858351       18.2752543117
  O        19.6022812287       20.7603746989       23.6007975182
  O        18.7319227154       19.2330902520       16.4691896151
  O        23.3957541710       18.7777619376       19.2166956354
  O        21.9137996667       19.0614913776       23.6464665526
  O        16.4617359380       20.9567345909       20.2815186223
  O        22.8795784573       21.1416051490       17.7298250569
  O        20.7337337282       21.3924529580       20.4053223441
  O        21.5377679197       17.1516007180       19.3312676687
  O        19.2130139583       23.4683756768       22.9317467076
  O        20.5270653906       24.1071986747       19.6852764331
  O        20.1046446672       17.0362365306       16.9100050134
  O        18.7752688764       19.7931090154       21.2592263110
  O        23.1990136775       20.4922742793       21.1614207546
  O        16.6977418193       18.8444336090       18.3534219582
      60
 i =        3, time =        3.000, E =      -344.4127465295
  H        17.9245411626       15.8927107408       18.1234709463
  H        19.9988988610       21.4763265816       18.6957978088
  H        21.0380038036       21.3093251709       17.6699761958
  H        21.7289947822       16.0400708549       22.7823343779
  H        20.2651394722       16.7168640929       22.1999900714
  H        18.0476203460       23.3778151767       21.5649884697
  H        17.3007844378       23.8667757852       20.2099839701
  H        18.6234566530       16.6918695182       20.3915547525
  H        19.0543082004       18.0229698498       21.2199054338
  H        18.3652288995       22.8117008109       17.7293173140
  H        18.7700476739       23.9948236934       18.6883319018
  H        20.5317216308       20.4192920573       23.5716506445
  H        19.2362421993       20.2642429320       24.3814754711
  H        18.6586943856       19.6231114901       15.5353456610
  H        19.0915145026       20.0085942872       16.9724663973
  H        24.2313825228       18.2747727690       19.1568818785
  H        22.6278377711       17.9788909897       19.4114030623
  H        21.6016599169       18.1526910020       23.2418472870
  H        22.5079948401       18.8628745284       24.3455652078
  H        15.6968127021       20.8143438906       20.8603670551
  H        16.6302819720       21.9622577171       20.6677423445
  H        22.9202713681       20.1963913270       17.9936921216
  H        22.8237873788       21.5520885465       18.5826991940
  H        20.0253980584       20.8465237401       20.8689395573
  H        21.5936770500       21.1015343494       20.8103018829
  H        20.7608163963       17.2622545304       20.0132491850
  H        21.0413403344       17.2289722410       18.4451974855
  H        19.4512904914       22.4914663384       23.0828705155
  H        20.1037297441       23.8789926475       22.5878743912
  H        21.2929070300       24.1857147431       19.1000302608
  H        20.4516956673       23.1555917189       19.9295546402
  H        20.8945002643       17.0285758189       16.3302666739
  H        19.6115538142       17.8682955108       16.5610800917
  H        18.8596893663       20.1779291336       22.1594853673
  H        17.8672627925       20.1859380320       20.9706978988
  H        23.3124798688       19.8100699465       20.4280581239
  H        23.0970747908       20.0019539223       21.9709090838
  H        17.2485035260       19.0953578229       17.5310532283
  H        17.1543452214       17.1033725715       18.8040631917
  H        16.6370767197       19.6462632510       18.8744837849
  O        17.5288934608       16.1728326133       18.9290156970
  O        20.0400996417       21.3282958084       17.7222603931
  O        20.9008351680       16.5650138586       23.0348000662
  O        17.1938475923       23.3807147970       21.0252496556
  O        19.3024463549       17.0886559624       20.9800563304
  O        17.9189635330       23.5556469128       18.2812810218
  O        19.6073349231       20.7514118614       23.6074518893
  O        18.7244546352       19.2380453263       16.4670583273
  O        23.3948461216       18.7771390177       19.2201636522
  O        21.9190126952       19.0611650665       23.6512187921
  O        16.4662828784       20.9530853580       20.2809506645
  O        22.8839772685       21.1482495323       17.7324806462
  O        20.7231486862       21.3913722893       20.4050918561
  O        21.5384435503       17.1506956103       19.3348970445
  O        19.2056720438       23.4722865408       22.9222015516
  O        20.5291562724       24.1066425307       19.6799254897
  O        20.1049249330       17.0334120273       16.9083134896
  O        18.7764158541       19.7969337389       21.2598259121
  O        23.1981835442       20.4964905643       21.1537090094
  O        16.7027336403       18.8420610990       18.3554384184
      60
 i =        4, time =        4.000, E =      -344.4180575328
  H        17.9309176168       15.9103594565       18.1067281638
  H        19.9943108532       21.4439963354       18.6868221100
  H        21.0504176747       21.3037914477       17.6351437741
  H        21.7268975414       16.0273103726       22.7808658100
  H        20.2846202685       16.7018226137       22.2113316062
  H        18.0170079258       23.3766379938       21.5728382624
  H        17.2970127951       23.8737705424       20.2187856772
  H        18.6084059138       16.6903090881       20.3868560138
  H        19.0528345706       17.9886643354       21.1891362400
  H        18.3600447399       22.8497132193       17.7163261344
  H        18.7359637142       23.9867091726       18.6992810932
  H        20.5084578895       20.3981668273       23.5702402890
  H        19.2583494123       20.2522713041       24.3750900917
  H        18.6452270085       19.6340781962       15.5439758741
  H        19.1016017823       20.0165294944       16.9845809767
  H        24.2116440115       18.2550651858       19.1504014802
  H        22.6237791207       17.9850943606       19.4238276148
  H        21.5861915777       18.1484073515       23.2355285934
  H        22.5176926398       18.8515652265       24.3350056817
  H        15.6783674254       20.8229712121       20.8539762931
  H        16.6464236973       21.9652881588       20.6652340607
  H        22.8980460198       20.1857590967       17.9875838252
  H        22.8287649641       21.5335353344       18.6038797980
  H        19.9942772372       20.8502000800       20.8760337465
  H        21.5938227732       21.0952152865       20.7941152619
  H        20.7585489321       17.2637759004       20.0256062785
  H        21.0439435159       17.2499230732       18.4504572257
  H        19.4581741688       22.5226089510       23.0964402275
  H        20.0799999042       23.8726303503       22.5877667838
  H        21.2929600572       24.1897683435       19.0934447793
  H        20.4576973548       23.1594637765       19.9146747625
  H        20.8904536160       17.0255560454       16.3369464416
  H        19.6150864866       17.8482520788       16.5517161609
  H        18.8588254244       20.1887351517       22.1669815051
  H        17.8672416684       20.1771351895       20.9862499856
  H        23.3217530258       19.8121097170       20.4353680484
  H        23.1049825872       19.9902854131       21.9726970907
  H        17.2468760158       19.1019399407       17.5313546024
  H        17.1655428494       17.0937077388       18.7844127321
  H        16.6350859974       19.6264469158       18.8757781684
  O        17.5225969891       16.1715401063       18.9313206275
  O        20.0434178047       21.3260607067       17.7225241558
  O        20.9008399661       16.5630269357       23.0322871026
  O        17.1960337325       23.3787507707       21.0272472144
  O        19.3161953099       17.0970917524       20.9837194178
  O        17.9167220274       23.5580340348       18.2871485271
  O        19.6121985359       20.7423786125       23.6143870668
  O        18.7166025420       19.2434016071       16.4638594130
  O        23.3935984146       18.7758570420       19.2238205871
  O        21.9230548458       19.0608820882       23.6542065746
  O        16.4710436785       20.9503861211       20.2812295924
  O        22.8881057318       21.1544276049       17.7340723660
  O        20.7125820177       21.3905645097       20.4048914205
  O        21.5382629420       17.1497121558       19.3387673340
  O        19.1996986733       23.4759959153       22.9120993533
  O        20.5306024794       24.1064087170       19.6748214500
  O        20.1051758917       17.0310761852       16.9065322810
  O        18.7769678411       19.8008159570       21.2602175791
  O        23.1972296989       20.5013883706       21.1456697350
  O        16.7081493281       18.8390282369       18.3563996418
      60
 i =        5, time =        5.000, E =      -344.4262121769
  H        17.9429538210       15.9268270820       18.0807946040
  H        19.9885864211       21.4098826991       18.6873534316
  H        21.0598008707       21.2974007636       17.5961997668
  H        21.7088141668       16.0219310149       22.7791038421
  H        20.3102875429       16.6796481810       22.2278527669
  H        17.9915909714       23.3796105946       21.5832635051
  H        17.2977616864       23.8853099379       20.2149100483
  H        18.5954322362       16.6887172232       20.3815304463
  H        19.0426720487       17.9759082147       21.1598263853
  H        18.3496384502       22.8958314891       17.7107801331
  H        18.6967080529       23.9749922858       18.7052999031
  H        20.5019967456       20.3697760156       23.5679280226
  H        19.2776408362       20.2402779038       24.3721911262
  H        18.6313102314       19.6408795787       15.5611215572
  H        19.1164971536       20.0254016312       16.9986362110
  H        24.1955777437       18.2363271105       19.1429314759
  H        22.6238581160       18.0019473399       19.4297691026
  H        21.5748635041       18.1535918417       23.2402608589
  H        22.5437397530       18.8323058722       24.3444254193
  H        15.6596541404       20.8255504159       20.8437231486
  H        16.6686063377       21.9586550239       20.6504511652
  H        22.8791437001       20.1768569564       17.9806999503
  H        22.8350522697       21.5229311400       18.6392078379
  H        19.9660999136       20.8543925652       20.8763978573
  H        21.5954358784       21.0885194460       20.7764246718
  H        20.7650017370       17.2619574105       20.0287646637
  H        21.0489724639       17.2686853039       18.4608656283
  H        19.4629977582       22.5597352252       23.1111916855
  H        20.0420124053       23.8607307408       22.5914983338
  H        21.2984070851       24.1926681706       19.0827392626
  H        20.4677550180       23.1563954909       19.9023297581
  H        20.8900116887       17.0198556022       16.3407010095
  H        19.6189474701       17.8254175103       16.5481562206
  H        18.8600939142       20.1973308809       22.1791245322
  H        17.8696064777       20.1660977916       20.9972532649
  H        23.3331300338       19.8100316345       20.4394930262
  H        23.1117279363       19.9772361523       21.9777605950
  H        17.2390084716       19.1049656400       17.5422444004
  H        17.1766093140       17.0841843632       18.7619888131
  H        16.6312414864       19.6239867237       18.8886179904
  O        17.5160242848       16.1705840433       18.9345875207
  O        20.0468985774       21.3237378078       17.7221998603
  O        20.9015989724       16.5611132989       23.0295090961
  O        17.1974568946       23.3760426535       21.0300417409
  O        19.3304635718       17.1043701884       20.9870869193
  O        17.9153324570       23.5602782492       18.2928082003
  O        19.6164731034       20.7337319843       23.6212972195
  O        18.7085420616       19.2493496222       16.4600312475
  O        23.3918730791       18.7739741730       19.2276942696
  O        21.9257086614       19.0605083163       23.6552369230
  O        16.4757185787       20.9486229323       20.2825541830
  O        22.8919374277       21.1599201865       17.7349375321
  O        20.7019220142       21.3898819225       20.4048633585
  O        21.5371626782       17.1486786844       19.3429569727
  O        19.1947124839       23.4796703362       22.9015242073
  O        20.5314419166       24.1066725316       19.6699094701
  O        20.1053050928       17.0290632284       16.9048501709
  O        18.7770527433       19.8048268172       21.2606986378
  O        23.1960985494       20.5067556370       21.1378591368
  O        16.7140310930       18.8349521394       18.3560679139
      60
 i =        6, time =        6.000, E =      -344.4277019394
  H        17.9554734895       15.9441900963       18.0581454776
  H        19.9838224711       21.3743001650       18.6982208598
  H        21.0625441003       21.2909273217       17.5563565464
  H        21.6794737450       16.0213797198       22.7766763695
  H        20.3354452535       16.6529182485       22.2421960759
  H        17.9781879085       23.3870087946       21.6001705672
  H        17.3024688564       23.8978793402       20.2048586198
  H        18.5915663740       16.6895084869       20.3800730268
  H        19.0218194942       17.9945459906       21.1348721637
  H        18.3383678539       22.9419941313       17.7064459708
  H        18.6640163861       23.9661118593       18.7124230181
  H        20.5138335816       20.3343376242       23.5637536552
  H        19.2910902750       20.2255276024       24.3774852931
  H        18.6165290001       19.6467006571       15.5798671018
  H        19.1334841583       20.0308632809       17.0108191734
  H        24.1841225510       18.2181333339       19.1342611479
  H        22.6272718359       18.0280855929       19.4296222834
  H        21.5682863282       18.1679642458       23.2557490016
  H        22.5761585172       18.8085369782       24.3623696571
  H        15.6453016308       20.8237756938       20.8270400564
  H        16.6954275023       21.9426788855       20.6247771210
  H        22.8639823056       20.1740447177       17.9718744078
  H        22.8431399837       21.5152878361       18.6768105029
  H        19.9438793372       20.8600606360       20.8690696911
  H        21.5957401319       21.0815823823       20.7573568611
  H        20.7783425166       17.2569878134       20.0239584107
  H        21.0555182837       17.2849487774       18.4752376885
  H        19.4671206145       22.5933254432       23.1289184159
  H        20.0031064776       23.8506051601       22.5937223709
  H        21.3062539347       24.1943173158       19.0700862518
  H        20.4815568299       23.1465171346       19.8925368744
  H        20.8945870715       17.0113712170       16.3405528071
  H        19.6200280374       17.8049073714       16.5480517125
  H        18.8632050250       20.2017664898       22.1917575449
  H        17.8717638518       20.1541361054       21.0029038243
  H        23.3466654218       19.8039930526       20.4396334834
  H        23.1176505458       19.9679019480       21.9793032929
  H        17.2277860425       19.1059043054       17.5594943533
  H        17.1851353460       17.0792727737       18.7380805633
  H        16.6259599287       19.6346340347       18.9102237754
  O        17.5096669562       16.1695634785       18.9379877524
  O        20.0506559025       21.3212727942       17.7210455656
  O        20.9032434994       16.5592912715       23.0269912892
  O        17.1977237185       23.3727881462       21.0329433172
  O        19.3449225241       17.1096955149       20.9897042783
  O        17.9137829327       23.5624772048       18.2982564199
  O        19.6202122343       20.7257377812       23.6278835934
  O        18.7005432088       19.2559367194       16.4562911759
  O        23.3896833403       18.7715853581       19.2317757014
  O        21.9275769822       19.0598428677       23.6550419938
  O        16.4800332863       20.9476493644       20.2849782533
  O        22.8954080432       21.1647761298       17.7358774621
  O        20.6911316326       21.3892486080       20.4050758686
  O        21.5352974232       17.1475993032       19.3474589845
  O        19.1897896579       23.4834571446       22.8906975396
  O        20.5318846972       24.1074244947       19.6650327794
  O        20.1053975192       17.0270845384       16.9034378302
  O        18.7768614344       19.8090159312       21.2616058452
  O        23.1947569404       20.5122763155       21.1307608241
  O        16.7201964979       18.8300273686       18.3548827232
      60
 i =        7, time =        7.000, E =      -344.4237797033
  H        17.9645677218       15.9631417935       18.0481664413
  H        19.9825252993       21.3372437961       18.7147144186
  H        21.0569200208       21.2849994557       17.5187335376
  H        21.6484714205       16.0197572548       22.7721629321
  H        20.3520109111       16.6244470237       22.2456541489
  H        17.9779850493       23.3990647906       21.6240399228
  H        17.3101798414       23.9066297930       20.1970630132
  H        18.6008710231       16.6936061383       20.3848121329
  H        18.9947648218       18.0346857732       21.1130045649
  H        18.3317115488       22.9792120986       17.6950385847
  H        18.6494381124       23.9664585269       18.7271764140
  H        20.5358962750       20.2956568091       23.5580268276
  H        19.2980845167       20.2077886758       24.3915358470
  H        18.6002028453       19.6556569134       15.5915409640
  H        19.1501788267       20.0300065408       17.0180764775
  H        24.1762927674       18.2010504293       19.1244653356
  H        22.6322614059       18.0606622830       19.4244619339
  H        21.5655837680       18.1881383648       23.2797780986
  H        22.6026124029       18.7852005409       24.3754505460
  H        15.6377808807       20.8193401141       20.8032571596
  H        16.7254123496       21.9199162061       20.5907632052
  H        22.8528855145       20.1794960185       17.9606029728
  H        22.8533550061       21.5063142305       18.7050188191
  H        19.9287113732       20.8668417545       20.8546100296
  H        21.5925633579       21.0743994112       20.7372551562
  H        20.7942499107       17.2494492475       20.0149827252
  H        21.0619400197       17.2985991871       18.4908992908
  H        19.4719894388       22.6147626997       23.1518645897
  H        19.9809064511       23.8515050307       22.5874887438
  H        21.3125110174       24.1945972606       19.0584114743
  H        20.4988000941       23.1331565676       19.8846248981
  H        20.9026809706       17.0003300968       16.3373688230
  H        19.6154925342       17.7916850766       16.5487167128
  H        18.8677689028       20.2007446994       22.2016919830
  H        17.8712775282       20.1424843815       21.0029122261
  H        23.3619941749       19.7958554542       20.4367481823
  H        23.1227984170       19.9658487887       21.9730022721
  H        17.2180324537       19.1074877104       17.5756713163
  H        17.1897087768       17.0810940841       18.7142738777
  H        16.6205542964       19.6478188611       18.9332637502
  O        17.5038711646       16.1682999958       18.9408535612
  O        20.0546600662       21.3186365164       17.7191745724
  O        20.9056793305       16.5577692252       23.0254149697
  O        17.1968241888       23.3692687126       21.0353591342
  O        19.3589913378       17.1136226215       20.9915419786
  O        17.9110050766       23.5647865504       18.3035896422
  O        19.6239035632       20.7182382237       23.6340548723
  O        18.6928892183       19.2630275283       16.4533893708
  O        23.3872383396       18.7688168496       19.2360084453
  O        21.9294995222       19.0587987891       23.6545810381
  O        16.4838443800       20.9471794681       20.2883531241
  O        22.8984719317       21.1691388458       17.7376298271
  O        20.6802446196       21.3886785404       20.4054878497
  O        21.5330183350       17.1464492695       19.3521819883
  O        19.1837106346       23.4873460446       22.8799150500
  O        20.5322009615       24.1084542137       19.6600329359
  O        20.1057049291       17.0248372619       16.9023697403
  O        18.7765788926       19.8133786445       21.2631848200
  O        23.1932086384       20.5176328377       21.1245716098
  O        16.7262830151       18.8247665617       18.3537627781
      60
 i =        8, time =        8.000, E =      -344.4247682332
  H        17.9687401776       15.9827782022       18.0548276620
  H        19.9871143570       21.2990801273       18.7296181277
  H        21.0435248564       21.2800345037       17.4857325444
  H        21.6270641463       16.0096723581       22.7636994777
  H        20.3547311251       16.5964284998       22.2336485058
  H        17.9858919209       23.4155921020       21.6510160627
  H        17.3199285678       23.9081261300       20.1975429285
  H        18.6243202290       16.7005605295       20.3961208048
  H        18.9698482724       18.0779296714       21.0922882643
  H        18.3330333800       23.0031945270       17.6716053819
  H        18.6557377497       23.9772386115       18.7511562008
  H        20.5572718825       20.2588491497       23.5520350249
  H        19.3004552165       20.1897372551       24.4102936433
  H        18.5818379454       19.6705735845       15.5907014369
  H        19.1649287810       20.0218265419       17.0186017059
  H        24.1698451838       18.1863008675       19.1139059856
  H        22.6356158886       18.0951777977       19.4159986220
  H        21.5641953841       18.2075979128       23.3084041943
  H        22.6151994841       18.7661780586       24.3755428232
  H        15.6366247009       20.8138228173       20.7738272264
  H        16.7573672390       21.8954020033       20.5519133886
  H        22.8459452414       20.1924936494       17.9469415785
  H        22.8656804743       21.4940491548       18.7170302718
  H        19.9196506097       20.8731899272       20.8349947621
  H        21.5847857886       21.0667214061       20.7167415145
  H        20.8066459917       17.2401914540       20.0075163491
  H        21.0662690911       17.3097130966       18.5043773899
  H        19.4778247681       22.6220330251       23.1807907411
  H        19.9844960643       23.8681659372       22.5690645067
  H        21.3141790010       24.1936582477       19.0498553405
  H        20.5189040159       23.1210771680       19.8777200299
  H        20.9107654990       16.9873269011       16.3331971784