      36
 i =        1, time =        1.000, E =      -206.6273219674
  H        16.0811223179       20.3165833702       18.9836652489
  H        20.4211893019       19.0662338547       17.4403968695
  H        21.5675595289       19.3639318535       18.3690138913
  H        19.3685646554       16.2955628963       19.7000033343
  H        18.6502661381       17.6610270829       20.0848047197
  H        23.3471489116       23.6822854210       19.4915385673
  H        22.1607719732       23.0548009464       18.8177643209
  H        17.0237748131       18.8639115136       20.5202307527
  H        17.7773127720       18.4420258718       21.7985552562
  H        20.5317745806       22.3140447689       17.4387219277
  H        21.9243345415       21.7810503727       16.8872520829
  H        21.7434040274       20.3978366242       20.6127323226
  H        21.5036486984       21.9258203321       20.9621865201
  H        20.0114296277       20.5404660075       18.3254627691
  H        19.8071718985       21.3887801197       19.5498363976
  H        23.9095221921       17.7481195542       22.2153373544
  H        22.2374268442       17.9045095142       22.5093666437
  H        20.5075482767       17.1868515286       21.2139598042
  H        20.0989997903       18.2116944732       22.2990868147
  H        19.8159405909       20.5485725579       21.8271537541
  H        18.8805016509       20.7011623630       23.0675000230
  H        22.6938920967       18.5896529612       20.7619277631
  H        23.4998709974       19.5351933996       19.8681571837
  H        17.6333659810       20.7139082630       19.3041271660
  O        16.7882241860       20.3308666629       19.6965034929
  O        21.0059246911       19.7656395493       17.6551274022
  O        19.4914213072       17.2576866138       19.6590203939
  O        22.7517685358       22.9417570938       19.6317906691
  O        17.3695493892       18.0888862685       21.0127418967
  O        21.4448371359       22.6324382880       17.1511406142
  O        21.0883962475       21.0509201825       20.9472202323
  O        19.3112490272       21.1647526168       18.7778113177
  O        23.1205810195       18.3455920482       22.2726336701
  O        20.6688017447       17.3806994779       22.1636420307
  O        19.0821402745       20.1153559123       22.3364843217
  O        22.5500400827       19.1714518150       19.9005235375
      36
 i =        2, time =        2.000, E =      -206.6267078703
  H        16.0638328431       20.3336311985       18.9820115603
  H        20.3946312405       19.0715800775       17.4395057953
  H        21.5710097328       19.3592187262       18.3725898865
  H        19.3375113656       16.2891878768       19.7012053463
  H        18.6547323670       17.6564268413       20.0577301363
  H        23.3456456184       23.6706328048       19.4846078887
  H        22.1531963536       23.0397776432       18.8118074389
  H        17.0265372056       18.8657136997       20.5152960544
  H        17.7550955888       18.4254887003       21.8093742554
  H        20.5381705711       22.3067298159       17.4183440083
  H        21.9211621266       21.8011695980       16.8574792345
  H        21.7599275277       20.4173386578       20.6066113706
  H        21.4851552685       21.9252273398       20.9523587618
  H        20.0098161168       20.5398437129       18.3360350426
  H        19.8325475689       21.3964340048       19.5810204591
  H        23.9185126343       17.7265828729       22.2401760269
  H        22.2522783833       17.9335856937       22.5219747751
  H        20.5032356485       17.1909172527       21.2091470203
  H        20.0792017599       18.1955106280       22.2683023008
  H        19.8043317189       20.5346315080       21.8220456128
  H        18.9008485828       20.7018195389       23.0628281084
  H        22.7214908442       18.5885825670       20.7816736480
  H        23.4805580682       19.5281321523       19.8877876830
  H        17.6375769335       20.7037689050       19.2942153683
  O        16.7847700588       20.3336847198       19.6997320108
  O        21.0089664925       19.7613765421       17.6547158853
  O        19.4902845699       17.2589022084       19.6562475240
  O        22.7549745500       22.9381509927       19.6337915093
  O        17.3647156588       18.0912165978       21.0050065031
  O        21.4446170678       22.6276374915       17.1557732971
  O        21.0835952903       21.0545329558       20.9519577169
  O        19.3147713091       21.1674029143       18.7816441545
  O        23.1223322581       18.3467388048       22.2721797371
  O        20.6721312204       17.3828311939       22.1534100846
  O        19.0842728866       20.1181764785       22.3447252061
  O        22.5509108228       19.1672094210       19.8973102212
      36
 i =        3, time =        3.000, E =      -206.6282473477
  H        16.0610080033       20.3521563724       18.9907594437
  H        20.3592054319       19.0628386301       17.4341020859
  H        21.5754335491       19.3542335117       18.3779592565
  H        19.3050194188       16.2855844988       19.7013311485
  H        18.6559807041       17.6508654886       20.0340810734
  H        23.3535439135       23.6687813497       19.4785184835
  H        22.1509399806       23.0195787385       18.8114607414
  H        17.0269576797       18.8792645061       20.5073082560
  H        17.7375168434       18.4174258335       21.8297481021
  H        20.5477578350       22.2987127215       17.3977329838
  H        21.9113310167       21.8274888477       16.8312119374
  H        21.7793255704       20.4334860133       20.5977719025
  H        21.4749359641       21.9348504351       20.9413943592
  H        20.0006926561       20.5447223086       18.3502621160
  H        19.8584826934       21.4045695135       19.6176367922
  H        23.9116445518       17.7095262650       22.2692600329
  H        22.2635976698       17.9534489247       22.5341013797
  H        20.4963728315       17.1941314077       21.1954030134
  H        20.0647019655       18.1729949319       22.2390431921
  H        19.7985528551       20.5245824039       21.8139554856
  H        18.9186258029       20.7128240338       23.0709388678
  H        22.7436237588       18.5945209630       20.7949915435
  H        23.4545126802       19.5219315115       19.9024340173
  H        17.6387498845       20.6914382199       19.2838684684
  O        16.7806457074       20.3366348671       19.7022423176
  O        21.0129356667       19.7573402597       17.6543245831
  O        19.4895304695       17.2599005326       19.6532524315
  O        22.7573425990       22.9342773346       19.6353225671
  O        17.3597865101       18.0923266866       20.9967567774
  O        21.4445173022       22.6225508112       17.1603202023
  O        21.0781848684       21.0579904656       20.9568569306
  O        19.3181598866       21.1701956250       18.7851447375
  O        23.1253152402       18.3479414374       22.2714058381
  O        20.6751457494       17.3857265406       22.1438383752
  O        19.0860786055       20.1197134161       22.3523627301
  O        22.5527648356       19.1625905947       19.8946998306
      36
 i =        4, time =        4.000, E =      -206.6281473346
  H        16.0709265583       20.3716572129       19.0086222102
  H        20.3257939581       19.0509601288       17.4286632429
  H        21.5789990675       19.3488409130       18.3832592694
  H        19.2729709898       16.2884977717       19.6998422185
  H        18.6509039998       17.6473446358       20.0157381538
  H        23.3683165249       23.6741021451       19.4733444144
  H        22.1549501637       22.9948219290       18.8172955340
  H        17.0261625755       18.9021486772       20.4983271553
  H        17.7211310473       18.4151003185       21.8523528613
  H        20.5551664959       22.2884516452       17.3785989460
  H        21.8994327981       21.8527246277       16.8058330101
  H        21.7972149505       20.4482222977       20.5879530010
  H        21.4718228619       21.9536998874       20.9297024758
  H        19.9867318840       20.5530946936       18.3666381198
  H        19.8772215845       21.4090368615       19.6470105820
  H        23.8885175153       17.6983747702       22.3019159559
  H        22.2672590409       17.9627702856       22.5468440329
  H        20.4883355272       17.1958977902       21.1747718256
  H        20.0534518319       18.1481486062       22.2133486039
  H        19.7987500758       20.5186596667       21.8030322391
  H        18.9346162440       20.7331213641       23.0901604432
  H        22.7581965629       18.6070842029       20.8008552172
  H        23.4332041841       19.5216752523       19.9105409225
  H        17.6360361586       20.6768799552       19.2742835036
  O        16.7760087766       20.3398023938       19.7040529424
  O        21.0172455956       19.7528396225       17.6537902822
  O        19.4892436627       17.2602560503       19.6499560859
  O        22.7589466377       22.9302614534       19.6363345577
  O        17.3548602470       18.0925450258       20.9883157765
  O        21.4445956548       22.6177402407       17.1648396980
  O        21.0725062503       21.0612349370       20.9617743383
  O        19.3217469996       21.1734988501       18.7891947419
  O        23.1298237892       18.3492122829       22.2702573316
  O        20.6778565557       17.3891684598       22.1346730637
  O        19.0874898684       20.1200482868       22.3595468961
  O        22.5550324841       19.1573417040       19.8929134907
      36
 i =        5, time =        5.000, E =      -206.6262096947
  H        16.0869501617       20.3917852917       19.0299030339
  H        20.3039468138       19.0447881286       17.4269166888
  H        21.5800801083       19.3429420652       18.3868582793
  H        19.2429569851       16.2987271619       19.6963138446
  H        18.6388569839       17.6477814586       20.0034639937
  H        23.3842117221       23.6802436025       19.4698847519
  H        22.1644085393       22.9666540903       18.8274014366
  H        17.0261863297       18.9291504010       20.4916815010
  H        17.7024847809       18.4153473723       21.8685505150
  H        20.5560864163       22.2748964589       17.3622269709
  H        21.8905439677       21.8693836539       16.7777503140
  H        21.8093223568       20.4632701067       20.5790000804
  H        21.4724548045       21.9755785535       20.9178389739
  H        19.9721486324       20.5612539671       18.3825152015
  H        19.8846391897       21.4075806943       19.6622533410
  H        23.8538548385       17.6909283003       22.3372391456
  H        22.2633994790       17.9630539022       22.5595992244
  H        20.4809028312       17.1964131871       21.1519573949
  H        20.0420667382       18.1261532020       22.1930811294
  H        19.8026657411       20.5157723315       21.7914512894
  H        18.9509715495       20.7563011772       23.1123544660
  H        22.7640245957       18.6246767570       20.7997298607
  H        23.4264839972       19.5317723715       19.9111967428
  H        17.6297296193       20.6605082429       19.2664526595
  O        16.7712588535       20.3432341233       19.7054819745
  O        21.0213763212       19.7473273268       17.6529844450
  O        19.4893690630       17.2597960484       19.6463567622
  O        22.7601742768       22.9264215769       19.6368980294
  O        17.3499949651       18.0924027695       20.9800071681
  O        21.4448156302       22.6137493667       17.1694811548
  O        21.0670252145       21.0645426852       20.9665445278
  O        19.3255502297       21.1776649600       18.7943799168
  O        23.1355459181       18.3506171275       22.2688065448
  O        20.6803486848       17.3927998405       22.1255233005
  O        19.0884992292       20.1196721258       22.3667049991
  O        22.5571890827       19.1513140803       19.8920172539
      36
 i =        6, time =        6.000, E =      -206.6258884220
  H        16.0989032171       20.4126402391       19.0457167888
  H        20.2986163569       19.0483487324       17.4306970978
  H        21.5778243407       19.3363675251       18.3879269819
  H        19.2158650855       16.3139905661       19.6905038598
  H        18.6224735150       17.6524849758       19.9967136533
  H        23.3956354383       23.6811951642       19.4688717980
  H        22.1769170763       22.9363852076       18.8377298595
  H        17.0287441680       18.9546643120       20.4901989924
  H        17.6798069798       18.4158418382       21.8725804845
  H        20.5497771930       22.2582302944       17.3490051933
  H        21.8871230933       21.8744188428       16.7448472893
  H        21.8126251600       20.4794802341       20.5723939871
  H        21.4731403144       21.9932927399       20.9065244258
  H        19.9616043351       20.5648360735       18.3947691543
  H        19.8797584952       21.3998515909       19.6616801302
  H        23.8162279243       17.6817205956       22.3746807396
  H        22.2558626702       17.9580691764       22.5701130630
  H        20.4757271161       17.1962463949       21.1318771565
  H        20.0274776120       18.1112238466       22.1795694522
  H        19.8069519096       20.5141814530       21.7823826137
  H        18.9695100744       20.7752557630       23.1289043616
  H        22.7610751222       18.6449673970       20.7932432142
  H        23.4353026208       19.5527194773       19.9040368136
  H        17.6212383076       20.6431603619       19.2609308775
  O        16.7669583122       20.3469174039       19.7070851055
  O        21.0250381157       19.7405758270       17.6518525190
  O        19.4896863880       17.2586429668       19.6425342877
  O        22.7615053258       22.9230360238       19.6372264618
  O        17.3451757594       18.0923970760       20.9720022017
  O        21.4450814489       22.6107653535       17.1743671218
  O        21.0621577492       21.0682981152       20.9710128097
  O        19.3293724170       21.1829720851       18.8009725831
  O        23.1416836062       18.3522871868       22.2672178343
  O        20.6827173673       17.3962837520       22.1160345105
  O        19.0891838306       20.1191466934       22.3742263088
  O        22.5591810136       19.1446370763       19.8919360054
      36
 i =        7, time =        7.000, E =      -206.6291778019
  H        16.0979952287       20.4346792352       19.0485358890
  H        20.3096755834       19.0609258357       17.4398554902
  H        21.5724277295       19.3288215754       18.3867186677
  H        19.1917383992       16.3297996102       19.6823490740
  H        18.6064705430       17.6605306882       19.9941665489
  H        23.3993981986       23.6738469413       19.4704285540
  H        22.1893360526       22.9051253726       18.8432631119
  H        17.0345686596       18.9743489832       20.4951932026
  H        17.6532761833       18.4154322521       21.8631398688
  H        20.5395001288       22.2400310001       17.3385332038
  H        21.8873742437       21.8715388821       16.7086351289
  H        21.8059153818       20.4966707215       20.5689778390
  H        21.4712206813       22.0019488589       20.8964666706
  H        19.9579880474       20.5610515146       18.4012566406
  H        19.8642921397       21.3872142509       19.6482344841
  H        23.7844556664       17.6645078139       22.4142901452
  H        22.2493956569       17.9522885495       22.5755854581
  H        20.4739242108       17.1959891062       21.1179695898
  H        20.0090284127       18.1044326083       22.1733878682
  H        19.8086848216       20.5122464782       21.7785940698
  H        18.9909219776       20.7854423660       23.1347185890
  H        22.7505533978       18.6651941002       20.7841864992
  H        23.4510263972       19.5802048533       19.8893186214
  H        17.6128029999       20.6259751076       19.2576595675
  O        16.7635413930       20.3507923903       19.7093778386
  O        21.0281823061       19.7326769572       17.6504029464
  O        19.4898942842       17.2571367318       19.6386085317
  O        22.7633197693       22.9202092933       19.6376311295
  O        17.3403302509       18.0928621984       20.9642846708
  O        21.4453134191       22.6084602226       17.1794523823
  O        21.0581699076       21.0728031115       20.9750862293
  O        19.3329623780       21.1894943467       18.8088655244
  O        23.1473652369       18.3543615294       22.2656679230
  O        20.6849603173       17.3994700376       22.1059959662
  O        19.0896618375       20.1188519320       22.3822902329
  O        22.5614733456       19.1377540820       19.8924455422
      36
 i =        8, time =        8.000, E =      -206.6321015795
  H        16.0835252729       20.4579131133       19.0384652023
  H        20.3316909384       19.0771847251       17.4523156095
  H        21.5650952106       19.3199256530       18.3845138981
  H        19.1700012132       16.3412635025       19.6718850734
  H        18.5956729200       17.6704865190       19.9943857794
  H        23.3955580207       23.6588358838       19.4738982353
  H        22.1994191411       22.8736155412       18.8402581056
  H        17.0433122197       18.9858234478       20.5062460136
  H        17.6247343577       18.4141632426       21.8436412857
  H        20.5304158901       22.2226276262       17.3302047282
  H        21.8871220399       21.8681802958       16.6734783075
  H        21.7900547602       20.5135699544       20.5687253288
  H        21.4655665099       22.0002097459       20.8881766716
  H        19.9606073118       20.5507240327       18.4021301569
  H        19.8429846350       21.3725616203       19.6299945448
  H        23.7622732426       17.6373524811       22.4559416958
  H        22.2473543486       17.9495302943       22.5738115369
  H        20.4759087053       17.1960477489       21.1115798302
  H        19.9892160770       18.1033215220       22.1743310781
  H        19.8062451567       20.5088567358       21.7815084703
  H        19.0148180949       20.7859131987       23.1292980207
  H        22.7347300712       18.6824183400       20.7765531755
  H        23.4623511355       19.6078108938       19.8681982588
  H        17.6068732084       20.6101739521       19.2559903820
  O        16.7609260177       20.3548153454       19.7124275886
  O        21.0310233941       19.7240296263       17.6487016457
  O        19.4897179133       17.2556762286       19.6346921919
  O        22.7657421744       22.9178363065       19.6383866287
  O        17.3353471411       18.0939246787       20.9566439998
  O        21.4454629214       22.6062178226       17.1845301388
  O        21.0551027048       21.0782097804       20.9787704309
  O        19.3360969811       21.1969699745       18.8174583767
  O        23.1521317536       18.3567522943       22.2643309938
  O        20.6869278448       17.4024466632       22.0953630714
  O        19.0900345679       20.1188975821       22.3908462423
  O        22.5646279067       19.1312389938       19.8931627126
      36
 i =        9, time =        9.000, E =      -206.6294182721
  H        16.0631645375       20.4813018377       19.0233635512
  H        20.3541362878       19.0875465079       17.4643651459
  H        21.5576704748       19.3093668665       18.3831968630
  H        19.1501274664       16.3454307895       19.6591353633
  H        18.5936639096       17.6809337134       19.9961560398
  H        23.3874707670       23.6405035820       19.4778715364
  H        22.2073345577       22.8423896656       18.8284318557
  H        17.0536921984       18.9889297662       20.5213387545
  H        17.5971768582       18.4131613577       21.8216699125
  H        20.5269012423       22.2081863402       17.3237302387
  H        21.8827747140       21.8709182271       16.6439004524
  H        21.7680084024       20.5277416292       20.5705215665
  H        21.4566971047       21.9905059502       20.8818256357
  H        19.9658565163       20.5379711556       18.3996812851
  H        19.8236591445       21.3596994688       19.6200941870
  H        23.7467419838       17.6053903589       22.4979782406
  H        22.2508676800       17.9522695158       22.5637818796
  H        20.4813682327       17.1965083804       21.1118435083
  H        19.9722887536       18.1036642910       22.1815402747
  H        19.7996004522       20.5035707709       21.7908090904
  H        19.0400524172       20.7794698371       23.1166784695
  H        22.7164505145       18.6940756400       20.7747895614
  H        23.4612349644       19.6300365343       19.8426447452
  H        17.6052058901       20.5967766729       19.2550573015
  O        16.7585470287       20.3590130426       19.7158081778
  O        21.0340570121       19.7152985527       17.6468744953
  O        19.4889504650       17.2545388880       19.6308681630
  O        22.7685412561       22.9155914347       19.6395904984
  O        17.3300981306       18.0954984692       20.9487111381
  O        21.4454958368       22.6034802461       17.1893644842
  O        21.0527571116       21.0845112212       20.9821745679
  O        19.3385287795       21.2048489538       18.8257022331
  O        23.1560929733       18.3590101971       22.2634178485
  O        20.6884002480       17.4054472243       22.0842422088
  O        19.0903495199       20.1191115128       22.3996409830
  O        22.5689682829       19.1255726233       19.8936167742
      36
 i =       10, time =       10.000, E =      -206.6263384081
  H        16.0464810764       20.5032722773       19.0125370467
  H        20.3652639645       19.0816463818       17.4720785231
  H        21.5519626686       19.2970988444       18.3845069279
  H        19.1323379270       16.3428228623       19.6440787545
  H        18.6022193438       17.6907515161       19.9985851477
  H        23.3807968708       23.6256989374       19.4804450559
  H        22.2155937762       22.8121680616       18.8110790355
  H        17.0637091927       18.9859015229       20.5371359115
  H        17.5737400596       18.4139899264       21.8066037262
  H        20.5308841768       22.1980414620       17.3193388308
  H        21.8728601425       21.8831017427       16.6226027260
  H        21.7443144314       20.5358102397       20.5722241288
  H        21.4467625146       21.9787186255       20.8771273269
  H        19.9695925207       20.5279020491       18.3970011235
  H        19.8140536495       21.3515973062       19.6314847392
  H        23.7322807625       17.5773169999       22.5373585944
  H        22.2587495507       17.9614133535       22.5458246592
  H        20.4892884832       17.1970605728       21.1157338180
  H        19.9620951012       18.1016517183       22.1937140497
  H        19.7902954919       20.4966251111       21.8044088534
  H        19.0651813419       20.7721890514       23.1046418838
  H        22.6984515926       18.6989596487       20.7817219399
  H        23.4448365441       19.6437997453       19.8149667861
  H        17.6080787842       20.5863734173       19.2543706528
  O        16.7558141513       20.3634582686       19.7189521034
  O        21.0378679147       19.7071739661       17.6450630793
  O        19.4874460638       17.2537656180       19.6271829668
  O        22.7711940103       22.9129785172       19.6411414213
  O        17.3244924550       18.0973217542       20.9401042964
  O        21.4454013847       22.5999397120       17.1938052652
  O        21.0507230659       21.0915485995       20.9855026169
  O        19.3400386412       21.2125599723       18.8325506567
  O        23.1596725611       18.3605539256       22.2631485813
  O        20.6892150810       17.4087216430       22.0728712720
  O        19.0905767776       20.1190791983       22.4082756980
  O        22.5745056195       19.1210002868       19.8934262114
      36
 i =       11, time =       11.000, E =      -206.6293540050
  H        16.0398908425       20.5225536813       19.0119860409
  H        20.3609017332       19.0561539282       17.4739366023
  H        21.5489923376       19.2835113193       18.3892115908
  H        19.1176438495       16.3369100698       19.6267413720
  H        18.6210798467       17.6993548441       20.0012206916
  H        23.3806193815       23.6204519792       19.4799421946
  H        22.2274403678       22.7839950401       18.7930139705
  H        17.0709832930       18.9811648469       20.5495590219
  H        17.5561901091       18.4171792556       21.8046126161
  H        20.5412964419       22.1923524863       17.3177534950
  H        21.8582924289       21.9043760057       16.6095964156
  H        21.7234779129       20.5345602277       20.5714384866
  H        21.4390594590       21.9726114486       20.8733391869
  H        19.9689111447       20.5245202454       18.3967518017
  H        19.8154600647       21.3482677039       19.6661146614
  H        23.7148484203       17.5602938622       22.5710623511
  H        22.2675814623       17.9763350290       22.5214689029
  H        20.4980732409       17.1970646132       21.1185512058
  H        19.9605955891       18.0951971406       22.2093711215
  H        19.7811745430       20.4888624758       21.8188170829
  H        19.0890594195       20.7710304043       23.1018221188
  H        22.6829412120       18.6980087062       20.7963985596
  H        23.4157069872       19.6490835858       19.7872106676
  H        17.6141368597       20.5790972332       19.2542014860
  O        16.7524442074       20.3682093245       19.7214280506
  O        21.0426300205       19.6998643146       17.6433184146
  O        19.4851334284       17.2531766190       19.6236380782
  O        22.7731668987       22.9095302683       19.6428268558
  O        17.3185630888       18.0990688441       20.9307150085
  O        21.4452091819       22.5955943741       17.1978363618
  O        21.0485117036       21.0990396575       20.9889978499
  O        19.3407322616       21.2197887968       18.8377143427
  O        23.1633296570       18.3609858926       22.2636718141
  O        20.6893563779       17.4124411245       22.0616005061
  O        19.0905970957       20.1183065025       22.4163836504
  O        22.5809545901       19.1174359453       19.8924821698
      36
 i =       12, time =       12.000, E =      -206.6334867259
  H        16.0451921942       20.5386530385       19.0231722707
  H        20.3483266940       19.0183931380       17.4717524314
  H        21.5485842895       19.2694963721       18.3966405312
  H        19.1071902629       16.3320531782       19.6073113120
  H        18.6477981327       17.7069640406       20.0042772268
  H        23.3877212274       23.6256986291       19.4759083991
  H        22.2452320130       22.7589592240       18.7783224745
  H        17.0733329309       18.9800275091       20.5548637290
  H        17.5439651491       18.4210685040       21.8143411359
  H        20.5543450423       22.1900566937       17.3200519212
  H        21.8421205747       21.9309238125       16.6018518957
  H        21.7076506581       20.5228726897       20.5669413370
  H        21.4366020368       21.9781427276       20.8695695956
  H        19.9626801603       20.5297379441       18.4005174658
  H        19.8217898144       21.3471492589       19.7124792211
  H        23.6932977751       17.5575227275       22.5972397410
  H        22.2722163990       17.9952160295       22.4930065787
  H        20.5058755840       17.1958917722       21.1154274671
  H        19.9672330303       18.0843996376       22.2271552694
  H        19.7755322484       20.4814517003       21.8301627268
  H        19.1111728345       20.7791007964       23.1124071739
  H        22.6717505951       18.6939579932       20.8141855039
  H        23.3816256243       19.6493946572       19.7605698881
  H        17.6210002988       20.5747962883       19.2554715630
  O        16.7485143166       20.3732647380       19.7230379437
  O        21.0478869418       19.6928706957       17.6415692120
  O        19.4820650252       17.2524824118       19.6201777607
  O        22.7742525090       22.9050917570       19.6444054352
  O        17.3125013012       18.1005082790       20.9209118207
  O        21.4449869696       22.5907425262       17.2015948887
  O        21.0457945324       21.1066813436       20.9928263715
  O        19.3410661561       21.2265161431       18.8418287015
  O        23.1674343969       18.3602237822       22.2650120676
  O        20.6889777274       17.4166312697       22.0507938261
  O        19.0902363641       20.1165374710       22.4239119795
  O        22.5877300794       19.1144561856       19.8909839641
      36
 i =       13, time =       13.000, E =      -206.6329759790
  H        16.0594616523       20.5520987504       19.0430273921
  H        20.3390193022       18.9799601759       17.4685823589
  H        21.5496033910       19.2563402431       18.4049123386
  H        19.1014844910       16.3314829439       19.5861638150
  H        18.6778194999       17.7147706221       20.0088453082
  H        23.3978798775       23.6364545494       19.4694196838
  H        22.2696984181       22.7378323121       18.7691829098
  H        17.0695371957       18.9860042184       20.5510337897
  H        17.5348590531       18.4225941398       21.8282327987
  H        20.5647260961       22.1892202820       17.3274079063
  H        21.8287265413       21.9565215477       16.5937296552
  H        21.6954919316       20.5029913174       20.5596147867
  H        21.4403283491       21.9953909901       20.8653245699
  H        19.9515063583       20.5431147177       18.4085097396
  H        19.8257585735       21.3454958974       19.7557793380